N,Z,element,be_per_a,beta_decay_energy,atomic_mass,s2n,s2p,qa,q2b,qep,qbn,s1n,s1p,q4b,qda,qpa,qna
49,29,Cu,8.350925,12.985766,77.95223,9.66412,34.565,-14.102,19.20848,-30.772000000000002,6.22041,3.9450000000000003,14.987,28.319470000000003,7.844,4.396,-9.202
48,30,Zn,8.507379,6.222716,77.938289205,11.32285,30.431,-11.452,14.37881,-27.973,0.43779,6.765359999999999,16.148,19.54271,4.20356,1.85216,-7.807
47,31,Ga,8.577127,8.156099000000001,77.931608845,13.551950000000001,27.30791,-10.12466,9.11099,-22.371000000000002,-0.56441,5.7849200000000005,12.205729999999999,9.74621,9.307870000000001,3.71701,-3.58821
46,32,Ge,8.671663,0.95489,77.922852912,14.79179,24.13697,-8.53025,5.16389,-20.36182,-6.01705,8.7205,13.15868,2.31623,5.1453999999999995,1.4665899999999998,-3.6567399999999997
45,33,As,8.673875,4.209004,77.921827795,16.668200000000002,21.09824,-7.19224,0.63522,-14.11357,-6.28877,6.97194,8.893049999999999,-5.881520000000001,11.10675,3.90408,1.29404
44,34,Se,8.717806000000001,-3.5737840000000003,77.917309243,17.91663,18.391000000000002,-6.028420000000001,-2.84767,-13.10205,-11.86245,10.497770000000001,10.3986,-13.852,5.97624,0.8723099999999999,0.47742
43,35,Br,8.661959000000001,0.726116,77.921145859,19.30573,15.738719999999999,-5.0170200000000005,-6.5167399999999995,-6.82481,-11.354030000000002,8.28867,6.141640000000001,-21.279,12.5106,3.5813800000000002,5.22844
42,36,Kr,8.661237999999999,-7.242857,77.920366341,21.3072,13.50427,-4.38999,-11.00433,-6.8677600000000005,-17.4191,12.08015,8.23244,-33.329,6.8216,-0.20721,3.63761
41,37,Rb,8.55835,-3.7614769999999997,77.928141868,22.59897,11.224290000000002,-4.07218,-14.762,-0.98958,-17.2033,10.17624,4.05495,,12.789100000000001,2.25226,7.81799
40,38,Sr,8.500096,-11.001,77.93217998,25.068939999999998,8.73817,-3.26702,-22.324,-0.29347,-24.807000000000002,13.44182,5.63242,,8.01595,-1.09119,6.79608
39,39,Y,8.349,-11.323,77.94399,29.836000000000002,6.272,-2.682,,5.369,-28.205000000000002,13.806000000000001,1.659,,12.785,-0.6900000000000001,10.692
38,40,Zr,8.194,,77.956146,,1.18,-2.447,,9.665000000000001,,16.881,1.7,,8.341,-4.166,11.415000000000001
51,28,Ni,8.143,14.17,78.970402,6.913,,-16.355,25.862000000000002,,8.856,1.752,,41.956,4.155,1.804,
50,29,Cu,8.312,11.692,78.95519,9.259,35.304,-14.516,20.807000000000002,,7.672000000000001,5.314,15.14,31.896,5.7700000000000005,4.7540000000000004,-11.583
49,30,Zn,8.450582,9.115384,78.942638068,10.78573,31.211000000000002,-11.827,16.0943,-26.832,2.2023400000000004,4.02038,16.2238,22.48516,5.902,2.40775,-6.156
48,31,Ga,8.556063,6.9789129999999995,78.932852301,12.69797,28.502,-10.50125,11.088370000000001,-25.339180000000002,1.24305,6.91305,12.35341,13.52036,6.95232,4.61939,-5.92529
47,32,Ge,8.634501,4.109457000000001,78.925360129,14.45636,25.31534,-9.3926,6.39087,-19.332330000000002,-4.78097,5.73586,13.10961,4.91566,7.17656,1.6340999999999999,-1.5771700000000002
46,33,As,8.676616000000001,2.2814099999999997,78.920948445,15.86237,22.22165,-7.59638,2.43199,-17.21907,-4.68142,8.89043,9.06297,-2.83306,8.28762,4.4408900000000004,-1.6930100000000001
45,34,Se,8.695592000000001,0.150576,78.918499251,17.4606,19.28254,-6.48541,-1.4752,-11.34438,-10.536620000000001,6.96283,10.38949,-10.44057,8.709670000000001,1.23797,2.94183
44,35,Br,8.687593999999999,-1.625778,78.918337601,18.97586,16.72966,-5.45875,-5.2650500000000005,-10.54007,-9.96108,10.687190000000001,6.331060000000001,-18.2502,9.24226,4.04797,1.86974
43,36,Kr,8.657112,-3.6392710000000004,78.920082945,20.41545,14.42071,-4.69769,-8.965370000000002,-4.70528,-15.57816,8.3353,8.279069999999999,-27.672,9.50336,0.71087,6.4560900000000006
42,37,Rb,8.601142,-5.326096,78.923989864,22.11513,12.146120000000002,-4.12089,-12.985149999999999,-4.6398,-15.700360000000002,11.93888,3.91368,-39.153,10.07726,3.07478,5.132479999999999
41,38,Sr,8.52382,-7.659056,78.929707664,23.81609,9.88539,-3.5781799999999997,-18.707,1.41242,-21.375,10.37426,5.830439999999999,,10.06441,-0.13375,9.18323
40,39,Y,8.416967000000001,-11.048,78.93793,27.522000000000002,7.56528,-3.0240500000000003,-26.168,1.82862,-25.039,13.716000000000001,1.93286,,10.69641,1.29386,8.30765
39,40,Zr,8.267,-15.120000000000001,78.94979,30.873,3.545,-2.577,,9.115,,13.992,1.8860000000000001,,10.379,-3.426,13.124
38,41,Nb,8.066,,78.966022,,-0.21,-2.255,,13.234,,,-1.9100000000000001,,11.1,,12.476
52,28,Ni,8.08,13.57,79.975706,4.883,,,29.019000000000002,,11.039,3.1310000000000002,,46.906,,3.249,
51,29,Cu,8.24,15.449,79.961138,7.845,,-14.114,23.024,,9.161,2.531,15.918000000000001,36.015,8.401,5.464,-9.539
50,30,Zn,8.423545,7.575055000000001,79.94455293,10.308010000000001,32.337,-12.443,17.886689999999998,-31.367,2.82775,6.28763,17.197,26.11084,3.55966,1.839,-9.203
49,31,Ga,8.508454,10.311639,79.936420774,11.660350000000001,29.30414,-10.672600000000001,12.99083,-24.772000000000002,2.2316100000000003,4.747310000000001,13.08034,16.66533,8.97037,4.42958,-4.953
48,32,Ge,8.62757,2.6791869999999998,79.925350774,13.81589,26.63001,-9.65721,8.22415,-23.39198,-3.9705700000000004,8.08003,14.2766,8.35804,4.88145,1.3210899999999999,-5.09971
47,33,As,8.651280000000002,5.544964,79.922474548,15.54019,23.08648,-8.34277,3.6745,-16.95579,-4.36835,6.649760000000001,9.976870000000002,-0.03903,10.358360000000001,3.86242,-0.57575
46,34,Se,8.710813,-1.870464,79.916521785,16.876150000000003,20.47535,-6.97148,0.13388999999999998,-15.521840000000001,-9.76274,9.91331,11.412379999999999,-7.448,5.76829,1.02092,-0.90019
45,35,Br,8.677653000000001,2.004353,79.91852981,18.57947,17.649990000000003,-6.02253,-3.7135300000000004,-9.54191,-9.518049999999999,7.8922799999999995,7.2605,-14.74084,11.847760000000001,3.5745500000000003,3.67373
44,36,Kr,8.692928,-5.717879,79.916378048,19.85771,15.44534,-5.0663100000000005,-7.5818900000000005,-9.26486,-15.16168,11.52241,9.11428,-23.533,6.26962,0.20552,2.35254
43,37,Rb,8.611675,-1.864009,79.922516444,21.38268,13.30125,-4.311310000000001,-11.02732,-3.3964000000000003,-14.7699,9.4438,5.0221800000000005,-33.755,12.713610000000001,2.8580300000000003,6.70574
42,38,Sr,8.578596,-9.163307000000001,79.92451754,23.280150000000003,10.711120000000001,-3.72266,-15.951,-3.15817,-20.56494,12.90589,6.79744,,7.334770000000001,-0.61691,5.504390000000001
41,39,Y,8.454274999999999,-6.788,79.934354755,25.118000000000002,8.79067,-3.09399,-22.728,2.36586,-22.449,11.40164,2.96023,,12.736600000000001,1.51934,9.32874
40,40,Zr,8.36,-15.94,79.941642,29.653000000000002,5.764,-2.537,,3.8280000000000003,-30.781000000000002,15.661,3.831,,8.524000000000001,-3.057,9.09
39,41,Nb,8.151,,79.958754,,0.8250000000000001,-2.365,,12.108,,14.841000000000001,-1.061,,13.14,-1.5170000000000001,13.665000000000001
52,29,Cu,8.179,14.779,80.966269,5.823,,-12.831,26.208000000000002,,12.157,3.2920000000000003,16.079,41.113,6.861,7.333,
51,30,Zn,8.351925,11.428291999999999,80.950402619,8.91,33.207,-11.825000000000001,20.09202,-30.859,4.95269,2.62237,17.289,30.18932,6.251,3.1618600000000003,-6.664
50,31,Ga,8.483357,8.663733,80.938133842,11.22291,30.466,-11.429,14.90535,-28.717000000000002,3.8360300000000005,6.475600000000001,13.26831,20.34908,6.515149999999999,4.71934,-7.4840800000000005
49,32,Ge,8.580658,6.241617000000001,80.928832942,12.907729999999999,27.437330000000003,-9.92741,10.097299999999999,-21.93205,-2.1485100000000004,4.8277,14.35699,11.404490000000001,6.9668,2.2783200000000003,-3.1620500000000002
48,33,As,8.648056,3.855684,80.92213229,15.03989,24.56357,-8.965879999999999,5.4437299999999995,-20.59861,-2.84516,8.39013,10.28697,2.92337,7.70409,4.1928,-3.1809499999999997
47,34,Se,8.685999,1.588046,80.917993044,16.614160000000002,21.44034,-7.60104,1.30719,-14.14265,-8.57131,6.700850000000001,11.46347,-4.86086,7.95787,1.29201,1.1194600000000001
46,35,Br,8.695946,-0.280853,80.916288206,18.051630000000003,18.91893,-6.4856300000000005,-2.52036,-13.05151,-8.155,10.159360000000001,7.506550000000001,-12.264120000000002,8.65123,3.91296,0.48631
45,36,Kr,8.68282,-2.239511,80.916589714,19.39656,16.35666,-5.52161,-6.1680600000000005,-7.2257,-13.592030000000001,7.87415,9.09616,-20.236040000000003,9.08266,0.62003,4.97616
44,37,Rb,8.645513000000001,-3.928545,80.918993927,20.79632,13.96658,-4.64678,-9.74376,-6.85665,-13.21653,11.35252,4.85229,-29.096,9.69639,3.58566,3.64189
43,38,Sr,8.587354,-5.815214,80.923211394,22.19387,11.66381,-3.7836,-14.06799,-0.9237500000000001,-18.45129,9.28798,6.64163,-39.778,9.98567,0.27135000000000004,8.29655
42,39,Y,8.505902,-8.252773,80.929454283,24.03771,9.487870000000001,-3.3073400000000004,-19.352,-0.82641,-19.424,12.63608,2.69042,,10.47478,2.32508,6.86891
41,40,Zr,8.394358,-11.1,80.938314,26.832,6.56119,-2.08162,-25.71,5.56235,-27.111,11.171,3.60096,,11.0685,-0.423,11.3602
40,41,Nb,8.248,-14.61,80.95023,30.853,3.121,-2.347,,7.4990000000000006,,16.011,-0.711,,11.121,-0.647,11.459
39,42,Mo,8.058,,80.965915,,-0.442,-2.1350000000000002,,15.321,,,0.619,,10.611,,14.746
53,29,Cu,8.103,16.994,81.972818,5.263,,,27.611,,12.808,1.971,,44.786,8.021,7.115,
52,30,Zn,8.301117,10.616764,81.954574099,6.80798,34.262,-10.849,23.101110000000002,,7.24268,4.18561,18.183,35.27993,4.597,4.29,-9.097
51,31,Ga,8.421049000000002,12.484348,81.943176533,9.84969,31.309,-10.85817,17.1747,-28.799,5.28965,3.37408,14.02003,24.56794,9.428700000000001,5.36563,-5.5440000000000005
50,32,Ge,8.563756,4.690352,81.929774033,12.0224,28.344400000000004,-10.35675,12.17881,-26.504369999999998,-0.95308,7.1947,15.076080000000001,15.17672,4.51941,1.9966700000000002,-6.33637
49,33,As,8.611414000000002,7.488463,81.924738733,14.03356,25.45969,-8.82438,7.39324,-19.76644,-1.78775,5.64343,11.1027,6.082380000000001,10.140690000000001,4.285229999999999,-1.91134
48,34,Se,8.693196,-0.095221,81.916699537,15.97706,22.63652,-8.15675,2.9979,-18.591169999999998,-7.68816,9.276209999999999,12.349549999999999,-1.58383,5.3314200000000005,0.90622,-2.42089
47,35,Br,8.682494,3.093124,81.91680176,17.752299999999998,19.86211,-7.1066400000000005,-1.31086,-12.25433,-7.8738,7.59294,8.39864,-9.43457,10.9716,3.28285,1.78379
46,36,Kr,8.710675,-4.403982,81.9134811552,18.84107,17.41027,-5.990760000000001,-4.581729999999999,-11.49177,-13.206430000000001,10.96692,9.90372,-16.9605,6.0080100000000005,0.3403,0.97208
45,37,Rb,8.647427,-0.17775100000000002,81.918209024,20.154970000000002,14.87675,-5.16056,-8.12371,-5.49974,-12.731,8.80245,5.78059,-24.098,12.416350000000001,3.11851,5.52663
44,38,Sr,8.635718,-7.9459610000000005,81.918399847,21.84123,12.69465,-4.25669,-12.378770000000001,-5.6028400000000005,-18.36846,12.55324,7.842350000000001,-35.64,6.87622,-0.34301,4.07861
43,39,Y,8.529275,-4.432804,81.926930188,23.05857,10.46656,-3.5535900000000002,-15.974,0.10361000000000001,-18.67527,10.4225,3.8249400000000002,,12.95817,2.27685,8.385299999999999
42,40,Zr,8.465676,-11.541,81.931689,25.414,7.89777,-2.8822600000000005,-23.261,0.60787,-25.342000000000002,14.24246,5.207350000000001,,8.22767,-0.9494,7.492
41,41,Nb,8.315,-11.72,81.944079,29.812,5.5200000000000005,-2.342,,6.3340000000000005,-28.411,13.801,1.919,,12.981,-0.456,11.374
40,42,Mo,8.163,,81.956661,,0.588,-1.945,,9.801,,16.691,1.299,,8.761000000000001,-3.856,12.047
53,30,Zn,8.226,12.967,82.961041,6.2330000000000005,,-11.145,24.686,,8.569,2.047,18.259,39.050000000000004,5.841,4.774,-8.014
52,31,Ga,8.372575000000001,11.719312,82.947120301,7.771800000000001,32.415,-9.942,20.412200000000002,-31.226,8.08663,4.3977200000000005,14.23214,29.75659,7.6533500000000005,7.25555,-7.4110000000000005
51,32,Ge,8.504344999999999,8.692888000000002,82.934539101,10.82738,29.35471,-9.969059999999999,14.3641,-25.95145,1.05767,3.63268,15.33469,19.014200000000002,7.36233,3.11129,-3.68142
50,33,As,8.599653,5.671207000000001,82.925206901,13.27865,26.619310000000002,-9.54656,9.344389999999999,-24.02757,-0.14676,7.63522,11.54323,9.40131,7.33317,4.73004,-4.79925
49,34,Se,8.658555,3.673179,82.919118609,15.094180000000001,23.62678,-8.238850000000001,4.6501,-17.21443,-5.913189999999999,5.817970000000001,12.52408,1.45708,7.90358,1.7380200000000001,-0.15882
48,35,Br,8.693384,0.976924,82.915175289,17.17931,21.058349999999997,-7.80258,0.056920000000000005,-16.19726,-6.49324,9.58637,8.7088,-6.80804,8.08608,3.6098000000000003,-1.15281
47,36,Kr,8.695729,-0.920004,82.914126518,18.43709,18.17959,-6.49809,-3.1930300000000003,-9.68572,-11.87415,7.47017,9.780940000000001,-14.07898,8.69721,0.76241,3.4152199999999997
46,37,Rb,8.675218000000001,-2.273024,82.915114182,19.75659,15.671540000000002,-5.427510000000001,-6.86496,-8.860940000000001,-11.13189,10.954139999999999,5.7678199999999995,-21.51455,9.33636,3.68677,2.46477
45,38,Sr,8.638406999999999,-4.591941,82.917554374,21.412110000000002,13.67937,-4.78026,-10.885950000000001,-3.49479,-16.804830000000003,8.858870000000001,7.898770000000001,-30.458000000000002,9.36987,0.24192,6.742140000000001
44,39,Y,8.573656000000001,-6.2940119999999995,82.922484025,22.63539,11.32694,-3.8276,-14.64958,-3.30683,-16.6457,12.21289,3.48458,-40.886,10.03327,2.96985,5.6162
43,40,Zr,8.488399,-8.355571,82.929240925,24.594150000000003,8.96147,-2.85968,-19.572,2.80943,-21.893,10.35168,5.13653,,10.51206,0.10055,10.046209999999999
42,41,Nb,8.378304,-11.216000000000001,82.938211,27.338,6.42111,-2.16317,-26.236,3.21904,-25.257,13.537,1.21377,,10.61486,1.668,9.23847
41,42,Mo,8.234,-15.02,82.950252,30.733,3.458,-1.995,,10.002,,14.041,1.539,,10.731,-3.056,13.667
40,43,Tc,8.043000000000001,,82.966377,,-0.463,-2.094,,13.481,,,-1.7610000000000001,,11.141,,12.747
54,30,Zn,8.172,12.158,83.965722,5.758,,-11.725,26.219,,9.256,3.7110000000000003,,44.018,4.101,4.355,
53,31,Ga,8.307,14.061,83.95267,7.3,33.346000000000004,-10.313,21.766000000000002,,8.818,2.902,15.087,33.695,8.937,6.976,-7.021
52,32,Ge,8.465524,7.705132,83.937575091,8.876,30.41241,-8.92473,17.799290000000003,-29.147000000000002,3.44958,5.24331,16.18028,24.29091,5.4931,4.34358,-6.30236
51,33,As,8.547938,10.094161,83.929303291,11.890780000000001,27.50078,-9.05481,11.92952,-23.88541,1.41565,4.25555,12.1661,13.9054,10.27231,5.302180000000001,-2.5791999999999997
50,34,Se,8.658793,1.835363,83.918466762,14.49647,25.110599999999998,-8.83733,6.49161,-22.26026,-5.00533,8.678510000000001,13.56737,4.70185,4.8685,1.44964,-4.0096300000000005
49,35,Br,8.671329,4.656251,83.916496419,16.42706,22.25561,-7.993510000000001,1.97588,-15.40273,-5.863770000000001,6.8406899999999995,9.731520000000002,-3.88865,10.521600000000001,3.46996,0.39662000000000003
48,36,Kr,8.717446,-2.680371,83.91149772863,17.990180000000002,19.42339,-7.10479,-1.78976,-14.387780000000001,-11.44002,10.52002,10.7146,-11.01765,5.77013,0.40175,-0.40395
47,37,Rb,8.676224,0.890606,83.914375225,19.7138,16.838240000000003,-6.2948900000000005,-5.86453,-8.034229999999999,-11.032680000000001,8.75965,7.057300000000001,-18.54025,11.54363,2.80127,3.86447
46,38,Sr,8.677512,-6.755139000000001,83.91341912,20.78215,14.63573,-5.18114,-9.227879999999999,-7.94791,-16.515220000000003,11.92328,8.86791,-26.479,6.24904,-0.32883999999999997,2.69301
45,39,Y,8.58778,-2.4727449999999997,83.920671061,21.97297,12.28457,-4.14388,-12.675709999999999,-2.11277,-16.054090000000002,9.76008,4.385800000000001,-36.194,12.82643,2.49775,7.208640000000001
44,40,Zr,8.549029,-10.202968,83.923325662,23.93303,9.98957,-3.5351399999999997,-17.252,-1.91305,-21.936919999999997,13.58135,6.50499,,7.35321,-0.84472,5.75284
43,41,Nb,8.418252,-7.049,83.934279,25.271,7.73257,-2.49548,-23.518,3.6979800000000003,-22.95,11.73395,2.5960300000000003,,13.12338,1.10548,10.140600000000001
42,42,Mo,8.325,-16.47,83.941846,29.943,5.117,-2.235,,4.453,-30.922,15.901,3.903,,8.631,-2.946,8.936
41,43,Tc,8.120000000000001,,83.959527,,0.188,-1.705,,12.567,,14.452,-1.351,,13.38,-1.086,14.307
55,30,Zn,8.092,14.619,84.972914,5.083,,,27.893,,10.786,1.372,,47.183,,4.953,
54,31,Ga,8.255,13.274000000000001,84.95722,6.735,,-10.854000000000001,23.34,,10.228,3.833,15.209,38.726,7.152,7.329,-8.883000000000001
53,32,Ge,8.401768,10.065724000000001,84.942969659,8.289620000000001,31.411,-9.34867,19.29022,-28.483,4.6588199999999995,3.04631,16.325,28.35691,6.8445100000000005,4.67135,-5.163060000000001
52,33,As,8.510984,9.224492,84.932163659,9.66246,28.50996,-7.98611,15.38632,-26.391000000000002,4.68726,5.406899999999999,12.329690000000001,18.978189999999998,8.4981,7.08998,-4.61202
51,34,Se,8.610304000000001,6.161833,84.922260759,13.21574,26.01514,-8.54686,9.066690000000001,-21.554180000000002,-2.70187,4.53723,13.84905,8.689639999999999,7.96649,2.5558400000000003,-1.35217
50,35,Br,8.673592000000001,2.904861,84.915645759,15.70439,23.484090000000002,-8.46708,3.59186,-20.01088,-4.20745,8.863700000000001,9.91672,-0.7333500000000001,7.4758700000000005,3.88247,-2.82365
49,36,Kr,8.698562,0.687,84.912527262,17.632330000000003,20.717740000000003,-7.51626,-0.37705,-12.82158,-9.79268,7.112310000000001,10.98622,-8.30514,8.244190000000001,0.88239,1.7599500000000001
48,37,Rb,8.697441000000001,-1.0640509999999999,84.9117897376,19.239340000000002,17.73156,-6.61521,-4.32521,-11.673219999999999,-9.589080000000001,10.47968,7.016970000000001,-15.88765,8.53411,3.2885100000000005,0.97773
47,38,Sr,8.675718000000002,-3.2611570000000003,84.912932043,20.448310000000003,15.69059,-5.83201,-7.92809,-5.95292,-15.28017,8.525030000000001,8.63329,-23.593529999999998,8.67816,-0.05142,5.13491
46,39,Y,8.628148,-4.666934,84.916433039,21.77909,13.34943,-4.81037,-11.56245,-5.37213,-14.49175,12.01901,4.481520000000001,-31.992,9.666290000000002,3.03198,3.99208
45,40,Zr,8.564039000000001,-6.895514,84.921443198,23.40617,10.95552,-4.07198,-15.66544,0.18541,-20.02779,9.82482,6.56973,-42.225,9.741280000000001,-0.24704,8.48126
44,41,Nb,8.473711,-8.769923,84.928845837,24.86623,8.651950000000001,-2.99168,-20.43,0.32577999999999996,-20.181,13.132280000000002,2.14696,,10.342780000000001,2.2156700000000003,7.43082
43,42,Mo,8.361331,-11.66,84.938260737,27.312,6.17604,-2.47453,-26.560000000000002,6.62296,-27.881,11.411,3.58001,,10.75714,-0.556,11.767940000000001
42,43,Tc,8.215,-14.9,84.950778,30.673000000000002,2.872,-1.9140000000000001,,8.08,,16.221,-1.031,,11.201,-0.616,11.886000000000001
41,44,Ru,8.03,,84.966774,,-0.812,-1.625,,15.931000000000001,,,0.538,,11.081,,15.067
55,31,Ga,8.186,15.32,85.963414,6.135,,-11.185,24.883,,10.972,2.302,16.138,41.553000000000004,8.561,7.074,
54,32,Ge,8.354629000000001,9.562221,85.946967,7.3941300000000005,32.048,-9.51088,21.10325,-31.458000000000002,5.71791,4.34782,16.84,33.865739999999995,5.398,4.72126,-7.463
53,33,As,8.456721,11.541024,85.936701533,9.25122,29.452,-8.45634,16.67011,-26.402,5.38018,3.84432,13.127690000000001,23.78485,9.89709,6.87835,-4.05862
52,34,Se,8.581822,5.129085,85.924311733,10.698080000000001,26.93268,-7.513020000000001,12.762500000000001,-24.66872,0.00099,6.160850000000001,14.60299,14.01992,6.0612,4.03021,-3.88033
51,35,Br,8.632365,7.633414,85.918805433,13.9918,24.356630000000003,-7.9517500000000005,7.11474,-19.732080000000003,-2.2232399999999997,5.128100000000001,10.50759,3.65084,11.026280000000002,4.57233,-0.31653
50,36,Kr,8.712029000000001,-0.518672,85.91061062627,16.96896,21.89589,-8.0967,1.2574200000000002,-18.141000000000002,-9.169649999999999,9.85665,11.97917,-5.29665,5.22822,0.6121000000000001,-2.27873
49,37,Rb,8.696901,1.7760960000000001,85.911167443,19.13066,19.54185,-7.67325,-3.4639,-11.46049,-9.71503,8.65098,8.555629999999999,-13.61294,10.40315,2.1077,1.91312
48,38,Sr,8.708456,-5.24,85.90926072631,20.016150000000003,16.6617,-6.35622,-6.55407,-10.33173,-14.75228,11.49113,9.64473,-20.41284,5.946680000000001,-0.5884,1.11395
47,39,Y,8.638428,-1.314075,85.914886098,21.531290000000002,14.10207,-5.5202,-10.149030000000002,-4.40473,-14.179219999999999,9.51228,5.46878,-27.713,12.077290000000001,2.3785700000000003,5.43394
46,40,Zr,8.614051,-8.834959999999999,85.916296815,22.68996,11.89739,-4.38388,-13.858770000000002,-4.15471,-19.76066,12.86514,7.4158599999999995,-38.199,6.636220000000001,-0.89929,4.47499
45,41,Nb,8.502222,-5.02381,85.925781535,24.05797,9.81756,-3.49488,-17.564,1.4191,-19.695619999999998,10.9257,3.24784,,12.99844,1.64165,8.71801