N,Z,element,be_per_a,beta_decay_energy,atomic_mass,s2n,s2p,qa,q2b,qep,qbn,s1n,s1p,q4b,qda,qpa,qna
97,81,Tl,7.742,-8.365,177.994857,21.515,0.847,7.02004,,9.466000000000001,,9.521,-0.7030000000000001,,17.705000000000002,8.046,18.26
96,82,Pb,7.69083,,178.003837163,,-0.7813,7.79039,,9.067870000000001,,,0.37415,,13.70351,,17.193270000000002
110,69,Tm,8.002,4.937,178.95534,10.274000000000001,,-0.8230000000000001,7.458,,0.024,5.556,8.629,8.757,11.968,9.894,3.336
109,70,Yb,8.025,2.521,178.95004,11.694,18.257,-0.31,3.9250000000000003,-13.566,-4.271,4.913,9.711,2.758,11.642,7.698,5.74
108,71,Lu,8.035073,1.4039890000000002,178.947333082,12.81775,16.168,0.82672,1.2984000000000002,-12.232000000000001,-4.695,6.79245,6.65241,-2.47464,12.638290000000001,9.29645,5.9588
107,72,Hf,8.038546,-0.10558400000000001,178.945825838,13.72493,14.054450000000001,1.80773,-1.16778,-8.0564,-7.936,6.09899,7.414090000000001,-7.44341,12.63171,7.78338,8.674809999999999
106,73,Ta,8.033585,-1.062195,178.945939187,14.78534,12.551459999999999,2.38334,-3.77304,-7.30851,-8.0217,7.83,5.211060000000001,-12.27561,13.2341,9.08305,8.67132
105,74,W,8.023281,-2.7108470000000002,178.947079501,15.736040000000001,10.992450000000002,2.7616199999999997,-6.2756300000000005,-4.14886,-11.71299,6.959510000000001,5.986,-17.02698,13.13029,6.9343,10.9276
104,75,Re,8.003766,-3.564785,178.949989715,16.45774,9.447610000000001,3.39945,-8.50257,-3.275,-11.11133,9.002139999999999,3.46631,-21.59571,13.82825,8.92138,10.4275
103,76,Os,7.97948,-4.937781,178.953816669,17.205669999999998,7.89571,4.18838,-10.75135,0.09847,-14.838930000000001,7.54654,4.655010000000001,-26.09136,13.96048,6.90745,13.268510000000001
102,77,Ir,7.9475240000000005,-5.813569,178.959117596,18.176930000000002,6.39049,4.781680000000001,-13.09315,0.28276999999999997,-14.155510000000001,9.90115,1.82641,-29.81322,14.58555,8.88028,12.62757
101,78,Pt,7.910675,-7.279578000000001,178.965358719,19.04034,4.88962,5.412310000000001,-15.340010000000001,3.98715,-18.03572,8.341940000000001,3.30523,-34.31878,14.49008,6.47424,15.4762
100,79,Au,7.8656369999999995,-8.060433,178.973173668,19.5861,3.5190900000000003,5.981020000000001,-16.72007,3.97435,-16.74398,10.75614,0.28002,,15.092680000000001,8.80935,14.53616
99,80,Hg,7.816236,-8.659638999999999,178.981826899,20.28823,2.1356300000000004,6.36042,-18.97877,7.78041,-20.209,8.68355,1.91336,,15.32778,6.45688,17.65213
98,81,Tl,7.7634870000000005,-10.319134,178.991123405,21.0706,1.3013299999999999,6.71054,,6.74628,-19.91411,11.549,-0.7584400000000001,,15.22485,8.380510000000001,15.89887
97,82,Pb,7.701468,,179.002201452,,-0.25524,7.5983,,11.07757,,9.59497,0.448,,16.10197,6.333100000000001,19.481990000000003
111,69,Tm,7.982,6.68,179.959291,9.947000000000001,,-1.055,8.756,,0.546,4.391,,11.013,13.051,9.802,
110,70,Yb,8.015,2.076,179.95212,11.047,18.918,-0.394,5.179,,-3.612,6.134,10.288,5.0360000000000005,10.226,7.7330000000000005,3.9050000000000002
109,71,Lu,8.022038,3.103,179.949890876,12.481200000000001,17.139,0.27005,2.25653,-12.365,-4.28476,5.68875,7.428,-0.83899,13.729930000000001,9.174100000000001,6.439
108,72,Hf,8.034930000000001,-0.846471,179.946559669,13.48675,14.66181,1.28705,-0.14323,-10.531,-7.49334,7.38776,8.0094,-5.42154,11.26924,7.46851,6.85345
107,73,Ta,8.025881,0.703238,179.947468392,14.477,13.17303,2.0244400000000002,-3.09552,-7.16293,-7.70907,6.64687,5.75894,-10.955350000000001,14.21316,8.81179,9.09733
106,74,W,8.025442,-3.798757,179.946713435,15.37181,11.77882,2.51529,-5.27831,-6.46218,-11.123149999999999,8.41231,6.567760000000001,-15.20024,11.673,6.94256,8.8909
105,75,Re,7.9999910000000005,-1.479549,179.950791568,16.32654,9.817,3.1031,-7.85983,-2.76901,-10.88918,7.3244,3.8312,-20.21185,15.28038,8.72842,11.52366
104,76,Os,7.987425,-6.380284,179.95237993,16.95617,8.52882,3.85888,-9.92193,-2.3516500000000002,-14.34741,9.40963,5.0625,-24.10736,12.006450000000001,6.77542,10.99032
103,77,Ir,7.947633,-3.541649,179.959229446,17.86828,6.902010000000001,4.6604399999999995,-12.352020000000001,1.31778,-13.780700000000001,7.96713,2.247,-28.590880000000002,16.277549999999998,8.84299,13.938049999999999
102,78,Pt,7.923611,-8.810368,179.963031563,18.580990000000003,5.46955,5.23715,-14.18543,1.29465,-17.51863,10.239049999999999,3.64313,-32.4945,12.52681,6.475600000000001,13.16699
101,79,Au,7.870318,-5.375062,179.972489883,19.4644,3.9515700000000002,5.8279,-16.238860000000003,5.16723,-16.76869,8.708260000000001,0.6463300000000001,,17.08282,8.60899,16.06831
100,80,Hg,7.83611,-10.8638,179.978260249,20.077180000000002,2.83087,6.2585,-18.30907,4.72873,-20.05327,11.39363,2.55085,,12.764100000000001,6.15871,14.766399999999999
99,81,Tl,7.771409,-7.445267,179.989923019,20.739,1.66085,6.7094,,8.31295,-19.508599999999998,9.18947,-0.25252,,17.640060000000002,8.259950000000002,17.80486
98,82,Pb,7.7257,,179.997915842,21.65831,0.20342,7.4186499999999995,,7.69778,,12.06334,0.96186,,13.56,6.2632,16.487560000000002
112,69,Tm,7.9670000000000005,5.918,180.962243,9.713000000000001,,,9.627,,1.358,5.322,,13.268,,9.954,
111,70,Yb,7.996,3.709,180.95589,10.693,,-0.655,6.315,,-2.483,4.5600000000000005,10.457,7.146,11.223,7.891,4.8180000000000005
110,71,Lu,8.011929,2.6054209999999998,180.951908,11.881129999999999,17.775000000000002,0.247,3.6409000000000002,-14.166,-3.0893800000000002,6.19238,7.486,1.71998,12.451,9.762120000000001,4.965
109,72,Hf,8.022002,1.03548,180.949110965,13.082559999999999,15.443,1.1586500000000002,0.83099,-10.092,-6.541270000000001,5.6948,8.01545,-3.85287,12.36689,7.79901,7.93905
108,73,Ta,8.0234,-0.204493,180.947999331,14.22362,13.95733,1.52058,-1.9209200000000002,-9.050930000000001,-6.8735100000000005,7.5767500000000005,5.94793,-8.975280000000001,12.7354,8.86098,7.54588
107,74,W,8.017948,-1.716427,180.948218863,15.08133,12.34885,2.22188,-4.6838500000000005,-5.74344,-10.467780000000001,6.669020000000001,6.58991,-13.85231,12.83431,7.228,9.84782
106,75,Re,8.004143000000001,-2.967428,180.950061523,16.07575,10.738010000000001,2.77231,-7.05436,-4.87348,-10.2309,8.75135,4.17025,-18.646259999999998,13.48854,8.7536,9.727
105,76,Os,7.983426000000001,-4.086935,180.953247188,16.673099999999998,8.832780000000001,3.7268499999999998,-9.168450000000002,-1.20282,-13.64375,7.263470000000001,5.00158,-22.888830000000002,13.745120000000002,6.9675400000000005,12.50337
104,77,Ir,7.956523000000001,-5.081517,180.957634694,17.523950000000003,7.45669,4.3812299999999995,-11.59189,-0.91464,-13.098469999999999,9.55682,2.39419,-26.66429,14.26727,8.9453,11.83683
103,78,Pt,7.924126,-6.510375,180.963089927,18.256,5.93996,5.15003,-13.720379999999999,2.6873299999999998,-16.82732,8.01695,3.6929600000000002,-31.26416,14.411010000000001,6.734430000000001,14.80916
102,79,Au,7.883835,-7.21,180.970079103,19.0252,4.36736,5.75137,-15.0724,2.8174200000000003,-15.69201,10.31694,0.72423,,15.10782,8.990440000000001,14.02715
101,80,Hg,7.839679,-7.862401,180.977819357,19.87564,2.97093,6.28439,-17.54379,6.4857700000000005,-19.34581,8.48201,2.3245999999999998,,15.03824,6.50666,16.982779999999998
100,81,Tl,7.791918,-9.681385,180.986259992,20.67287,2.38811,6.32145,,5.537800000000001,-18.92867,11.4834,-0.16274000000000002,,14.840209999999999,8.381219999999999,15.15141
99,82,Pb,7.734107,,180.996653386,21.31062,0.76716,7.24028,,9.84413,,9.247290000000001,1.01967,,15.86195,6.537,18.84495
112,70,Yb,7.984,3.06,181.958325,10.363,,-0.985,7.229,,-2.094,5.803,10.939,9.426,9.811,7.6450000000000005,
111,71,Lu,7.996,4.17,181.95504,11.346,18.538,-0.189,4.55,-13.999,-2.548,5.154,8.081,3.5660000000000003,13.431000000000001,9.522,5.367
110,72,Hf,8.014837,0.380425,181.950563816,12.412790000000001,16.028,1.22105,2.1965500000000002,-12.25,-5.682510000000001,6.71799,8.54107,-1.4404000000000001,11.33765,7.873460000000001,6.134
109,73,Ta,8.012628,1.816126,181.950155413,13.639690000000002,14.33153,1.4829400000000001,-0.98387,-8.92149,-6.26743,6.062939999999999,6.31607,-7.37826,14.06022,8.89703,8.27539
108,74,W,8.018308,-2.8000000000000003,181.948205721,14.75258,13.04465,1.76426,-3.63696,-8.1322,-9.79999,8.08356,7.09672,-12.07761,11.397620000000002,6.97532,7.86325
107,75,Re,7.9986250000000005,-0.836955,181.951211645,15.75134,11.091120000000002,2.727,-6.39438,-4.2967200000000005,-9.96741,6.9999899999999995,4.50121,-17.145290000000003,14.900860000000002,8.713120000000002,10.55766
106,76,Os,7.989728,-5.557426,181.952110153,16.39393,9.550930000000001,3.37292,-8.44066,-3.66426,-13.21739,9.13046,5.380680000000001,-21.03218,11.93906,6.83923,10.33242
105,77,Ir,7.954894,-2.88323,181.958076296,17.21679,7.792260000000001,4.17686,-10.75091,0.17674,-12.74148,7.65997,2.79069,-25.72375,16.01694,8.83187,13.179
104,78,Pt,7.934754,-7.867680000000001,181.961171571,17.87521,6.38858,4.95091,-12.59153,0.09254000000000001,-16.36863,9.85825,3.99439,-29.34334,12.519879999999999,6.77732,12.49745
103,79,Au,7.887226,-4.723846,181.969617874,18.81789,4.90118,5.5262,-14.97284,3.87329,-15.71095,8.500950000000001,1.2082300000000001,,16.84591,8.831430000000001,15.42735
102,80,Hg,7.856972,-10.248994000000001,181.974689132,19.46911,3.71899,5.99568,-16.751810000000003,3.5156199999999997,-18.8495,10.9871,2.9947600000000003,,12.75939,6.2757,14.337629999999999
101,81,Tl,7.79636,-6.502815,181.98569188,20.08391,2.2803600000000004,6.5508999999999995,,7.25424,-18.28189,8.60051,-0.04424,,17.63333,8.464260000000001,17.30704
100,82,Pb,7.7563320000000004,,181.99267294,21.02637,1.15261,7.06587,,6.5470500000000005,,11.77908,1.31535,,13.27234,6.30744,15.74942
113,70,Yb,7.964,4.616,182.962319,10.154,,,8.183,,-1.291,4.351,,11.266,10.782,7.6850000000000005,
112,71,Lu,7.984812,3.566687,182.957363,11.06133,19.124,-0.541,5.57669,,-1.7379200000000001,5.907,8.185,6.09347,12.083,9.748,3.85
111,72,Hf,8.000027,2.0100000000000002,182.953534004,12.0226,16.773,0.8300000000000001,3.08278,-11.752,-4.924180000000001,5.304609999999999,8.692,0.38125000000000003,12.22542,8.257610000000001,6.964
110,73,Ta,8.006734999999999,1.0727829999999998,182.95137618,12.99712,15.07333,1.34121,0.51678,-10.702,-5.11805,6.9341800000000005,6.53226,-5.08949,12.82084,9.350610000000001,7.02995
109,74,W,8.008322,-0.556,182.9502245,14.2744,13.540690000000001,1.6724100000000002,-2.70154,-7.60504,-8.99084,6.190840000000001,7.22462,-10.59309,12.78354,7.43135,9.06017
108,75,Re,8.001009,-2.145537,182.95082139,15.43482,11.949209999999999,2.12283,-5.60627,-6.66862,-9.271790000000001,8.43484,4.8524899999999995,-15.6181,13.135040000000002,8.69059,8.7697
107,76,Os,7.98501,-3.460732,182.953124719,16.256709999999998,10.00817,3.20617,-7.89156,-2.70695,-12.68368,7.12626,5.50695,-19.85937,13.56415,7.03737,11.61847
106,77,Ir,7.961823000000001,-4.430823999999999,182.956839968,16.88292,8.263860000000001,3.9560500000000003,-10.01183,-2.04622,-12.10618,9.22295,2.88318,-23.61605,14.057459999999999,9.01855,11.28045
105,78,Pt,7.933336000000001,-5.581004,182.961596653,17.53361,6.80046,4.82209,-11.96781,1.5476500000000002,-15.543040000000001,7.6753599999999995,4.00978,-28.19727,14.40135,7.06909,14.23172
104,79,Au,7.898564,-6.386809,182.967588108,18.46298,5.3064,5.46532,-13.60423,1.5712300000000001,-14.68588,9.96203,1.312,,14.900830000000001,9.108450000000001,13.432440000000001
103,80,Hg,7.859388,-7.217417,182.974444629,19.28617,4.0011,6.03856,-16.22946,5.074800000000001,-18.548060000000003,8.29907,2.7928800000000003,,14.777270000000001,6.68489,16.2776
102,81,Tl,7.815673,-9.012038,182.982192846,19.931160000000002,3.29406,5.97639,,4.42454,-17.83346,11.33065,0.29931,,14.784690000000001,8.52725,14.68465
101,82,Pb,7.762152,,182.991867668,20.6005,1.49202,6.928,,8.71273,,8.82142,1.53626,,15.93432,6.675479999999999,18.321630000000003
114,70,Yb,7.9510000000000005,3.872,183.965067,9.863,,,8.959,,-0.895,5.5120000000000005,,13.165000000000001,,7.495,
113,71,Lu,7.9670000000000005,5.087,183.96091,10.675,,-0.917,6.4270000000000005,,-1.201,4.767,8.601,7.808,13.119,9.540000000000001,4.405
112,72,Hf,7.990722,1.34,183.955448587,11.5925,17.257,0.676,4.206,-13.689,-4.27789,6.287890000000001,9.07223,2.75316,11.091000000000001,8.162090000000001,5.235
111,73,Ta,7.993752000000001,2.866,183.954010038,12.55207,15.537,1.4120599999999999,1.38026,-10.41223,-4.54511,5.61789,6.84555,-3.22852,13.920940000000002,9.42751,7.604439999999999
110,74,W,8.005077,-1.4857390000000001,183.95093326,13.60195,14.23381,1.64906,-1.45284,-9.711549999999999,-7.96711,7.41111,7.70155,-8.371129999999999,11.43537,7.59699,7.343859999999999
109,75,Re,7.99275,0.032898000000000004,183.952528267,14.91621,12.36764,2.2883299999999998,-4.608779999999999,-6.21581,-8.62691,6.48137,5.1430299999999995,-13.900920000000001,14.73723,8.87824,9.86508
108,76,Os,7.988677,-4.641682,183.952492949,15.786059999999999,10.58441,2.95867,-6.91829,-5.1759200000000005,-12.120540000000002,8.65981,5.731920000000001,-17.90357,11.90433,7.12891,9.627690000000001
107,77,Ir,7.959198000000001,-2.2766080000000004,183.957476,16.701810000000002,8.74273,3.80159,-9.29214,-1.09024,-11.90968,7.47886,3.23578,-22.727610000000002,15.70906,8.80317,12.552940000000001
106,78,Pt,7.942574,-7.0155330000000005,183.959920039,17.30843,7.3030800000000005,4.59865,-10.985280000000001,-0.95917,-15.214080000000001,9.63307,4.4199,-26.28272,12.42824,6.99284,11.86212
105,79,Au,7.900194000000001,-3.969745,183.967451524,18.160580000000003,5.84497,5.233899999999999,-13.43547,2.5956300000000003,-14.58535,8.198540000000001,1.83519,-31.38178,16.56054,8.926860000000001,14.79072
104,80,Hg,7.874367,-9.465723,183.971713221,18.91468,4.75846,5.662,-15.297440000000002,2.1345500000000004,-17.83303,10.61561,3.44645,,12.66261,6.386229999999999,13.67895
103,81,Tl,7.818671,-5.831720000000001,183.981875093,19.697950000000002,3.1604200000000002,6.31735,-17.94631,6.019270000000001,-17.37934,8.3673,0.36754000000000003,,17.404490000000003,8.641950000000001,16.6343
102,82,Pb,7.782725,-12.11459,183.988135702,20.369040000000002,2.05254,6.7740100000000005,,5.464180000000001,,11.54762,1.7532400000000001,,12.98721,6.61127,15.256020000000001
101,83,Bi,7.712633,,184.00114125,,0.18695,8.0248,,10.36135,,,-1.34932,,18.59899,9.044469999999999,19.508200000000002
115,70,Yb,7.929,5.388,184.969404,9.543000000000001,,,9.82,,-0.159,4.031,,14.888,,,
114,71,Lu,7.954,4.432,184.96362,10.314,,-1.1420000000000001,7.507000000000001,,-0.46,5.547,8.637,9.931000000000001,11.923,9.796,
113,72,Hf,7.9739700000000004,3.0744920000000002,184.958862,11.17964,17.798000000000002,0.343,5.06799,-13.069,-3.5517399999999997,4.8917399999999995,9.197000000000001,4.48608,12.107120000000002,8.424,6.147
112,73,Ta,7.9863599999999995,1.9935,184.955561396,12.24413,16.256120000000003,0.9782000000000001,2.4247300000000003,-12.271,-3.76024,6.62624,7.183890000000001,-1.05874,12.59931,9.51927,6.132000000000001
111,74,W,7.992907000000001,0.431234,184.953421286,13.164850000000001,14.68294,1.59012,-0.5819099999999999,-9.177389999999999,-7.2394799999999995,5.75374,7.83739,-6.69965,12.61581,7.9062,8.30812
110,75,Re,7.991009,-1.013147,184.952958337,14.15208,13.10417,2.19437,-3.48347,-8.26862,-7.637810000000001,7.670710000000001,5.40262,-11.96088,13.25736,9.29109,8.25731
109,76,Os,7.981304000000001,-2.470326,184.954045995,15.284469999999999,11.01824,3.0030200000000002,-6.1177399999999995,-4.38948,-11.266350000000001,6.6246599999999995,5.8752200000000006,-16.62221,13.71451,7.50424,11.08658
108,77,Ir,7.963722,-3.6474140000000004,184.956698,16.27488,9.10391,3.75692,-8.47741,-3.40489,-11.07263,8.79602,3.37199,-20.577810000000003,14.039299999999999,9.13761,10.75691
107,78,Pt,7.939777,-4.8299970000000005,184.960613659,17.05829,7.60204,4.43691,-10.50447,0.27542,-14.44075,7.42521,4.3662600000000005,-25.146919999999998,14.22598,7.22759,13.56737
106,79,Au,7.90944,-5.6744769999999995,184.965798874,17.80929,6.23277,5.17997,-12.1004,0.46374000000000004,-13.5805,9.61075,1.81287,-29.622,14.62515,9.17436,12.83994
105,80,Hg,7.874537999999999,-6.425925,184.971890676,18.521630000000002,4.98912,5.772930000000001,-14.64245,3.86161,-17.371740000000003,7.906020000000001,3.15393,,14.718620000000001,6.98116,15.63118
104,81,Tl,7.835575,-8.216521,184.978789191,19.313119999999998,4.1442,5.688479999999999,-17.522000000000002,3.2720000000000002,-16.777540000000002,10.94582,0.69775,,14.75774,8.68324,14.18943
103,82,Pb,7.786932,-9.305,184.987609989,20.10864,2.3144899999999997,6.695,,7.518770000000001,-20.675610000000002,8.561020000000001,1.9469500000000002,,15.75684,6.65076,17.6821
102,83,Bi,7.732,,184.9976,,0.226,8.138,,7.3580000000000005,,11.370000000000001,-1.5270000000000001,,16.05,9.453,16.739
115,71,Lu,7.9350000000000005,6.214,185.967568,9.941,,,8.397,,0.038,4.394,8.999,11.717,13.040000000000001,9.753,
114,72,Hf,7.964302,2.1833180000000003,185.960897,11.06747,18.462,-0.029,6.08432,-15.213000000000001,-3.10123,6.17573,9.825000000000001,6.57573,10.699,8.15595,4.322
113,73,Ta,7.9718350000000004,3.9010000000000002,185.958553111,11.91079,16.773,0.848,3.31956,-12.009,-3.2910500000000003,5.28455,7.5767,0.5648200000000001,13.60265,9.53932,6.75498
112,74,W,7.988601,-0.581442,185.954365215,12.94579,15.587100000000001,1.11607,0.49141,-11.4777,-6.76082,7.19205,8.40321,-4.64408,11.04165,7.64832,6.42067
111,75,Re,7.981269,1.072857,185.954989419,13.85009,13.66565,2.07793,-2.75474,-7.82176,-7.192520000000001,6.17938,5.82826,-10.21223,14.489090000000001,9.30255,9.012110000000002
110,76,Os,7.982831,-3.827596,185.95383766,14.89004,11.87251,2.8211999999999997,-5.1355,-6.90112,-10.73571,8.265379999999999,6.46989,-14.46085,11.9305,7.67369,9.01204
109,77,Ir,7.958047,-1.307903,185.957946754,15.70413,9.53065,3.8488,-7.45749,-2.64229,-10.555520000000001,6.90811,3.65544,-19.28573,15.79099,9.35575,12.28364
108,78,Pt,7.946809,-6.149591000000001,185.959350846,16.67283,8.18985,4.31975,-9.32535,-2.3475300000000003,-14.077620000000001,9.247620000000001,4.81786,-23.18242,12.45721,7.202920000000001,11.446
107,79,Au,7.90954,-3.175756,185.965952703,17.53878,6.68194,4.91191,-11.82824,1.33173,-13.602500000000001,7.92803,2.31568,-28.56864,16.3302,8.92169,14.134860000000002
106,80,Hg,7.888260000000001,-8.652484000000001,185.969362017,18.33277,5.7828,5.20444,-13.85707,0.8600700000000001,-16.85267,10.42675,3.96992,-32.64007,12.49042,6.516439999999999,12.879790000000002
105,81,Tl,7.837535,-5.204588,185.978650841,19.14601,4.145840000000001,5.98924,-16.7404,4.6825600000000005,-16.41671,8.200190000000001,0.99192,,17.17316,8.78212,15.951270000000001
104,82,Pb,7.805347,-11.535814,185.984238196,19.77314,2.911,6.46998,-18.783,4.21267,-20.518,11.21212,2.2132600000000004,,12.91202,6.76929,14.76905
103,83,Bi,7.739121,-7.247186,185.996622402,20.35191,0.8409099999999999,7.7568,,9.32256,,8.982,-1.10604,,18.61612,9.29306,19.08745
102,84,Po,7.695951,,186.004402577,,-0.57455,8.50117,,8.35322,,,0.9520000000000001,,13.748709999999999,,17.32259
116,71,Lu,7.922000000000001,5.237,186.970392,9.835,,,9.316,,0.773,5.441,,13.637,11.631,9.824,
115,72,Hf,7.946,4.079,186.96477,10.639,18.894000000000002,-0.14200000000000002,7.087,,-2.2800000000000002,4.464,9.895,8.402000000000001,11.782,8.46,5.37
114,73,Ta,7.963212,3.008424,186.960391,11.643889999999999,17.586000000000002,0.39565,4.320930000000001,-13.974,-2.45834,6.35934,7.7603100000000005,2.65383,12.13506,9.46788,5.163
113,74,W,7.975116,1.312508,186.957161323,12.658809999999999,16.162110000000002,0.95391,1.31497,-10.76873,-6.0482,5.466760000000001,8.58541,-3.2189200000000002,12.20113,7.79946,7.2418000000000005
112,75,Re,7.977951,0.002467,186.955752288,13.540090000000001,14.400129999999999,1.6514000000000002,-1.6671099999999999,-9.897920000000001,-6.287850000000001,7.36071,5.99692,-8.188640000000001,12.88212,9.352950000000002,7.2693
111,76,Os,7.97378,-1.6695719999999998,186.95574964,14.555700000000002,12.40909,2.72172,-4.53389,-5.999390000000001,-10.11792,6.2903199999999995,6.58083,-13.10101,13.31089,7.86474,10.13283
110,77,Ir,7.960668,-2.8643229999999997,186.957542,15.35645,10.308290000000001,3.83529,-6.52153,-4.91126,-9.75625,8.44834,3.8384,-17.10479,13.96731,9.567219999999999,10.31666