N,Z,element,be_per_a,beta_decay_energy,atomic_mass,s2n,s2p,qa,q2b,qep,qbn,s1n,s1p,q4b,qda,qpa,qna
56,55,Cs,8.07,,110.953945,,-0.195,4.105,,10.279,,,-1.734,,13.98,4.596,15.518
72,40,Zr,8.081,11.65,111.965196,6.3420000000000005,,,25.060000000000002,,8.469,4.011,,43.211,,4.925,
71,41,Nb,8.178,13.41,111.952689,7.9030000000000005,,-9.715,21.189,,7.799,3.181,14.879,35.661,8.861,6.524,-5.9430000000000005
70,42,Mo,8.291,7.779,111.938293,9.087,29.838,-8.955,18.151,-28.289,3.474,5.611,15.808,28.841,5.541,4.074,-6.103
69,43,Tc,8.3536217,10.3719409,111.929941658,10.3670046,27.5269599,-8.1386503,14.472119800000002,-23.588,3.4550753,4.3055747,12.6080896,21.324796900000003,9.9876895,6.2644078,-2.9227303000000004
68,44,Ru,8.4392431,4.100179,111.918806922,11.700880100000001,25.673000599999998,-7.3064913,10.6901664,-22.9800305,-1.39832,6.9168656,13.8951685,14.9439844,6.1144976,3.5160107,-3.3251861
67,45,Rh,8.4688666,6.5899874,111.914405199,13.044995199999999,23.274430499999998,-6.2331373,6.8526771,-17.9953475,-1.8164837,5.498499,10.234697500000001,8.2590749,11.0523841,5.8714585,0.1981788
66,46,Pd,8.5207205,0.2626897,111.907330557,14.132771000000002,20.8263524,-5.0845511,4.253818,-16.8246849,-6.176910299999999,8.406471100000001,11.306139400000001,2.3340099,7.2184605,3.5422669,0.0638181
65,47,Ag,8.5160807,3.9911282999999997,111.907048548,15.269059,18.3329783,-3.9774892,1.4063978,-11.5688291,-5.4028,6.4396,7.8868138,-4.984755900000001,12.4579824,5.8868099,4.0619242
64,48,Cd,8.544730600000001,-2.5847306,111.902763896,16.369524,16.821895100000003,-3.4755578999999996,-1.9198081,-11.8779421,-10.2541256,9.393928299999999,9.648381299999999,-13.0073392,7.5932559,3.0086285,2.6780286
63,49,In,8.5146674,0.6649224,111.905538718,17.662793399999998,15.1107627,-2.8082511,-6.3911536,-7.0636508000000005,-10.1228642,7.669395000000001,6.0268508,-20.9267882,13.0686498,5.3782589,6.3757061
62,50,Sn,8.513618899999999,-7.056076,111.904824894,18.9556928,12.8850218,-1.8275424,-11.0875311,-6.6917732,-15.8896206,10.7877866,7.5519704,-28.6287016,8.5257273,2.6985318000000005,5.4956835
61,51,Sb,8.443633,-4.031455,111.912399903,20.291864699999998,9.7069458,0.0959392,-14.5356346,-0.4958944,-16.0828043,8.8335446,2.9493636000000003,-35.184,14.9538264,5.8952625,10.5369548
60,52,Te,8.4006527,-10.504179500000001,111.916727848,21.4803337,6.303467700000001,2.0775148,-17.5411705,1.0820914000000001,-20.6850414,12.0513493,4.0197426,,10.593033400000001,3.5475235,10.7090645
59,53,I,8.299880100000001,-7.036991,111.928004548,22.7381308,4.1915362,2.9570864,-20.649,6.484437,-20.615000000000002,10.1808619,0.7648227000000001,,15.877289000000001,5.516116,14.8340501
58,54,Xe,8.2300646,-13.612,111.935559068,24.246347200000002,2.3744692,3.3304128,,6.272168300000001,-25.198,13.578,2.3615239000000003,,11.152303400000001,2.5102129,13.335454
57,55,Cs,8.102,,111.950172,,0.525,3.9314368,,11.25,,11.586,-0.8162864,,16.219,4.619,16.904
72,41,Nb,8.143,12.44,112.956833,7.392,,-10.154,22.602,,9.199,4.211,15.079,38.557,6.981,6.8740000000000006,
71,42,Mo,8.246,10.162,112.943478,8.853,30.748,-9.345,19.218,-27.519000000000002,4.538,3.242,15.869,30.941,7.021,4.524,-4.784
70,43,Tc,8.329465200000001,9.056267400000001,112.932569032,9.9295094,28.429000000000002,-8.546665,15.955395000000001,-26.031,4.7480062,5.6239346999999995,12.621,24.2152761,7.8390718,6.588321,-4.8552322000000006
69,44,Ru,8.402685700000001,6.8991276,112.922846729,11.2251268,26.5059447,-7.6334473,11.722683499999999,-21.677,-0.2080823,4.3082612,13.897855100000001,17.1754703,7.8676664,4.0308026,-1.6855994
68,45,Rh,8.4568165,4.823555900000001,112.915440212,12.6057089,24.3202104,-6.9090311,8.259881100000001,-20.7969827,-0.5172225,7.1072099,10.4250419,10.6001797,8.7291887,6.1697405,-2.085978
67,46,Pd,8.4925795,3.4363252,112.910261912,13.7472495,21.3831163,-5.2769603,5.4527868,-15.2485978,-5.0780887,5.3407784000000005,11.1484188,4.7376297,9.4241784,4.102248400000001,2.1285315000000002
66,47,Ag,8.516066,2.0164615,112.906572865,14.9540139,19.300896,-4.4524897,2.3402986,-14.584744,-4.5232856,8.5144139,7.9947566,-2.6098593,9.669868500000002,6.1681348,1.4482701
65,48,Cd,8.5269874,0.323837,112.904408105,15.9336755,17.6353422,-3.8617185,-0.7151571,-10.0112181,-9.1244777,6.5397471,9.7485284,-10.6962489,9.8829677,3.278075,4.9340202
64,49,In,8.5229297,-1.0389940999999998,112.904060451,17.1177097,15.7296185,-3.0726086,-4.950157900000001,-10.0723655,-8.7833923,9.448314700000001,6.0812371999999995,-18.2476069,10.595930599999999,5.844901300000001,3.7365849
63,50,Sn,8.5068117,-3.9111637000000004,112.905175857,18.5321848,13.6538244,-2.2487147,-9.9810918,-5.042243000000001,-14.8004742,7.7443982,7.6269736,-26.124503,10.774727500000001,3.0058954,7.666242400000001
62,51,Sb,8.4652762,-6.0699281,112.909374664,19.7228551,10.602857900000002,-0.3523556,-13.2974491,-3.7158099000000004,-14.9207655,10.8893105,3.0508874,-32.6524269,12.2324221,6.2890822,7.6994061
61,52,Te,8.4046366,-7.227521,112.915891,20.902186699999998,6.9863989,1.8582272,-16.1434112,3.0190407,-19.3550169,8.850837400000001,4.037035400000001,-38.637,13.200516200000001,3.9667623,13.1413573
60,53,I,8.333752800000001,-8.9158902,112.923650062,22.3083579,4.860712,2.7065541,-19.3549778,3.1904856,-19.164487,12.127495999999999,0.8409694,,13.1787775,5.9743592,11.9766302
59,54,Xe,8.2479277,-10.4390876,112.933221663,23.826,3.1940815,3.0868573,-22.494,8.0749208,-23.86,10.2485967,2.4292587,,13.4609755,3.1282729,15.6725965
58,55,Cs,8.148623,-12.055,112.944428484,25.007,1.3886859999999999,3.4830508,,8.0098289,,13.421000000000001,-0.9728379,,13.466000000000001,5.022153,14.349707500000001
57,56,Ba,8.035,,112.95737,,-0.233,4.035,,13.028,,,0.584,,13.901,,17.859
73,41,Nb,8.097,14.72,113.962469,7.033,,,23.64,,9.619,2.821,15.909,40.75,8.171,6.384,
72,42,Mo,8.219,8.92,113.946666,8.343,31.839000000000002,-9.885,20.541,-30.629,5.0600000000000005,5.102,16.759,33.81,5.1000000000000005,4.144,-7.554
71,43,Tc,8.290259899999999,11.620919,113.93709,9.483998,29.108,-8.7152955,17.1099812,-25.679000000000002,5.1962041,3.8600632999999998,13.239,26.3305167,9.59,6.2035747,-3.994
70,44,Ru,8.3853351,5.4890622,113.92461443,10.7329761,27.319,-8.1103143,13.2691335,-24.86,0.47441269999999996,6.4247149,14.6986353,19.793721,5.7485261,3.6675177,-4.6349973
69,45,Rh,8.426622100000001,7.7800712,113.91872168,12.1218594,25.0292853,-7.1006275,9.2205355,-20.1876976,-0.1910936,5.014649500000001,11.1314302,12.8595319,10.6314048,5.939105400000001,-1.0391975
68,46,Pd,8.488005600000001,1.4404641999999999,113.91036943,13.311943300000001,22.4374156,-5.8426333,6.5245875,-18.911501400000002,-4.534839600000001,7.9711649,12.012373799999999,7.0693888,6.9515125,3.6775797,-1.0586188
67,47,Ag,8.4937786,5.0841233,113.908823029,14.489717800000001,19.7777009,-4.5270337,3.6389965,-13.452838,-3.9588422999999997,5.9753039,8.629282100000001,-0.4341944,12.1010357,5.9191308000000005,3.0194625
66,48,Cd,8.531513499999999,-1.4451268,113.903364998,15.5827127,18.2718367,-4.1089454,0.5448012999999999,-13.7134054,-8.7191286,9.0429656,10.2770801,-8.1252574,7.2796021,3.0645683,1.6173545999999999
65,49,In,8.511974200000001,1.9899281000000002,113.904916405,16.7223165,16.5640203,-3.5374168,-4.0731908,-8.831953299999999,-8.3129959,7.2740018,6.8154918,-15.9308724,12.7158572,5.5464951000000005,5.2920421
64,50,Sn,8.5225671,-6.0631189,113.90278013,18.0473222,14.56282,-2.6366815999999997,-8.670058800000001,-8.8054199,-14.2140878,10.302924,8.4815829,-23.4738365,8.1411985,2.6963698,4.338914
63,51,Sb,8.4625191,-2.6069398,113.909289155,19.040279299999998,11.0844317,-0.45156270000000004,-11.8576816,-2.4184639000000003,-14.2208969,8.1509688,3.4574580999999998,-29.8106882,14.8692399,6.3060195000000006,9.5418357
62,52,Te,8.432788500000001,-9.2507417,113.91208782,20.4647945,7.8125694,1.5274002,-14.8037778,-0.8505183,-18.8414781,11.6139571,4.7616819999999995,-35.9842399,10.4201037,3.8111253,9.6953063
61,53,I,8.344779,-5.5530360000000005,113.9220189,21.7182323,5.6179037,2.3858939,-17.953006600000002,4.4890598,-18.5066265,9.590736300000001,1.5808684000000002,,15.6393904,5.8126074,13.8442141
60,54,Xe,8.2892054,-12.399970600000001,113.927980329,23.2021872,4.0963227,2.719006,-21.1804621,3.9721677,-23.3926781,12.9535905,3.2553533000000003,,10.688246900000001,2.7319513000000004,12.147990400000001
59,55,Cs,8.1735711,-8.7804915,113.941292244,24.414,2.2005317,3.3569999,,9.1446173,-23.048000000000002,10.9927075,-0.22872710000000002,,16.051226500000002,4.698,15.9142688
58,56,Ba,8.0896865,,113.950718489,,0.45703109999999997,3.5922840000000003,,9.0092186,,14.267,1.4298689999999998,,11.22,1.859,14.261000000000001
74,41,Nb,8.061,13.67,114.966849,6.813,,,24.917,,10.729000000000001,3.991,,43.349000000000004,6.171,6.404,
73,42,Mo,8.173,11.247,114.952174,8.042,32.788000000000004,-10.494,21.556,,5.979,2.9410000000000003,16.879,35.876,6.371,4.384,-6.484
72,43,Tc,8.264,10.309000000000001,114.9401,9.128,30.165,-9.261000000000001,18.433,-28.126,6.353,5.268,13.405000000000001,29.186,7.564,6.547,-6.08
71,44,Ru,8.346814,8.123932700000001,114.929033049,10.3801156,28.033,-8.5903979,14.3205265,-23.714000000000002,1.5336615999999998,3.9554006,14.7939726,21.9791842,7.4170602,4.0176917,-2.979
70,45,Rh,8.4106538,6.1965938,114.920311649,11.6049206,25.9956216,-7.6294686,10.753358500000001,-22.917905299999997,1.1898001999999999,6.5902711,11.2969863,15.3071283,8.3493949,6.2656998999999995,-3.3238939000000003
69,46,Pd,8.4577342,4.5567647,114.913659333,12.977958500000002,23.135948,-6.0654124000000005,7.6586577,-17.4935801,-3.5663294000000003,5.0067936,12.004517900000002,9.6080237,9.051928700000001,4.1692851,0.8514531
68,47,Ag,8.4905553,3.101893,114.908767445,14.098398,20.7935851,-5.1036316,4.5537698,-16.5612826,-3.0389708,8.123094100000001,8.7812113,2.0208254,9.318719999999999,6.2025078,0.3948674
67,48,Cd,8.510725200000001,1.4518768,114.905437426,15.1838295,19.071922200000003,-4.5235093,1.949366,-11.8831044,-7.585990700000001,6.1408639,10.4426401,-6.0217123,9.653152200000001,3.3633045000000004,3.8829618
66,49,In,8.516547200000002,0.4974892,114.903878772,16.3118692,17.0874738,-3.7458253,-2.5329444,-11.894516900000001,-7.0479393,9.0378675,6.8103937,-13.198551799999999,10.2177369,5.902556,2.6937747
65,50,Sn,8.5140702,-3.0304336,114.903344695,17.8483525,15.5685015,-3.2065145000000004,-7.9710783,-7.3078829,-13.6085475,7.5454285,8.7530096,-21.377088500000003,10.044084699999999,2.8203362000000003,6.187413800000001
64,51,Sb,8.480915600000001,-4.9406447,114.906598,18.7290827,12.2142308,-1.0362782,-10.6656075,-5.7225761,-13.185053700000001,10.5781139,3.732648,-27.304000000000002,12.0355242,6.5156922,6.6331168
63,52,Te,8.4311504,-5.7249628,114.911902,19.8583661,8.3125803,1.4508973,-13.4060102,1.2079967999999999,-17.4951507,8.244409,4.8551222,-33.143,13.0650052,4.4002609,12.238684
62,53,I,8.3745651,-7.6810475,114.918048,21.3609243,6.498781200000001,2.0740261,-16.638,0.8698406,-17.323224,11.770188000000001,1.7370992,,12.7200398,6.0937687,10.9075707
61,54,Xe,8.3009704,-8.957,114.926293943,22.5957671,4.8876619,2.5058139,-19.737000000000002,5.9439482,-22.042147099999998,9.6421765,3.3067935000000004,,13.173566300000001,3.2706366,14.5571631
60,55,Cs,8.216,-10.779,114.93591,24.078,3.158,2.829,,5.651,-21.865000000000002,13.085,-0.097,,13.215,5.191,13.01
59,56,Ba,8.116,,114.947482,25.353,1.295,3.1750000000000003,,10.877,,11.086,1.5230000000000001,,13.555,2.359,16.753
74,42,Mo,8.143,10.003,115.955759,7.673,,-11.215,22.859,,6.515000000000001,4.732,17.619,38.621,4.46,3.864,-9.224
73,43,Tc,8.223,12.855,115.94502,8.756,30.832,-9.569,19.522000000000002,-27.623,6.82,3.488,13.953,31.329,9.178,6.3,-5.357
72,44,Ru,8.326884,6.666825200000001,115.931219191,9.9903403,28.967000000000002,-9.014,15.762109200000001,-26.808,2.088993,6.0349397,15.561,24.643571800000004,5.2421839,3.6066868,-5.773
71,45,Rh,8.377612300000001,9.0952839,115.92406206,11.1681033,26.713390500000003,-7.901726200000001,11.8069217,-22.228,1.6187616,4.5778322,11.919417900000001,17.514016100000003,10.1962776,5.9961288999999995,-2.2777914999999997
70,46,Pd,8.4492755,2.7116378,115.914297872,12.483316,24.1877555,-6.6250692,8.8814626,-21.0147018,-2.9197576,7.4765223,12.890769200000001,11.6949525,6.5900559,3.7999726000000003,-2.316808
69,47,Ag,8.465907300000001,6.169824800000001,115.911386809,13.7544895,21.410331,-5.236528000000001,5.7070944,-15.6024069,-2.5295023999999997,5.631395400000001,9.4058131,4.2793557,11.6584894,5.9118908,1.8706819000000001
68,48,Cd,8.5123511,-0.4627305,115.90476323,14.8401911,19.800084599999998,-4.8163654,2.8134899,-15.5756379,-7.2474504,8.699327199999999,11.0188732,-3.4486963999999998,6.929128800000001,3.1783912,0.5244129000000001
67,49,In,8.5016177,3.2762204,115.905259992,15.822587400000002,17.896889899999998,-4.0909453,-1.4277387000000001,-10.5561428,-6.287230800000001,6.78472,7.4542497999999995,-10.8291047,12.4759825,5.6575832,4.4234686000000005
66,50,Sn,8.5231166,-4.7039591000000005,115.901742825,17.108879700000003,16.088987,-3.3760374000000004,-6.262186300000001,-10.7304702,-12.5938847,9.5634512,9.2785934,-18.479101500000002,7.7546353,2.7051998,3.1637098000000003
65,51,Sb,8.4758208,-1.5582272000000001,115.906792732,18.4680396,12.8301548,-1.2568089,-9.401366099999999,-4.5746343,-12.830570400000001,7.8899257,4.0771451,-24.779,14.4485225,6.3701647,8.191505900000001
64,52,Te,8.4556435,-7.8431388,115.908465558,19.5167522,9.2819994,0.9663408,-12.216915199999999,-2.5189179,-16.9973059,11.2723432,5.5493514,-30.884,9.943630800000001,4.0172282,8.710739
63,53,I,8.3812858,-4.3737764,115.916885513,20.9243551,7.501979500000001,1.7534036000000002,-15.378,2.2937874000000003,-16.8352146,9.1541671,2.6468573,-37.371,15.1798298,5.7904389,12.6427141
62,54,Xe,8.3368365,-11.004,115.921580955,22.103614699999998,5.735143,2.095725,-18.667,1.726919,-21.419,12.4614382,3.9980437,,10.3028644,2.9366944,10.9465623
61,55,Cs,8.235,-7.663,115.933395,23.499,3.982,2.596,-21.993000000000002,7.006,-21.194,10.414,0.675,,15.754,5.025,14.723
60,56,Ba,8.162,-14.33,115.941621,24.617,1.872,3.222,,6.988,,13.531,1.969,,11.017,2.249,13.47
59,57,La,8.032,,115.957005,,-0.058,3.94,,12.361,,,-1.581,,16.566,4.524,17.361
75,42,Mo,8.096,12.450000000000001,116.961686,7.282,,-11.774000000000001,23.801000000000002,,7.453,2.5500000000000003,17.748,40.735,5.902,4.135,
74,43,Tc,8.195,11.35,116.94832,8.486,31.838,-10.355,20.757,-30.198,7.8580000000000005,4.997,14.218,34.042,7.121,6.405,-7.533
73,44,Ru,8.285562500000001,9.406887500000002,116.936135,9.5272114,29.518,-9.265,16.9340187,-25.569,3.1745535,3.4922718,15.565,26.9285261,7.017,3.9744783000000004,-4.163
72,45,Rh,8.3592766,7.5271313,116.926036291,10.8101663,27.678,-8.510125500000001,13.285159600000002,-24.972,2.8629499000000003,6.232334,12.1168123,20.0462768,7.919344199999999,6.1885098,-4.650062200000001
71,46,Pd,8.416924300000002,5.758028400000001,116.917955584,12.1407037,24.8965362,-6.9809894,9.9945074,-19.643943500000002,-1.9525436,4.6641814,12.9771183,13.973852800000001,8.5161456,4.1504408,-0.5562744000000001
70,47,Ag,8.4594515,4.236479,116.911774086,13.3419674,22.5306319,-5.8398901,6.761117100000001,-18.7351467,-1.5407471000000001,7.710572,9.6398627,6.4576457000000005,8.9547111,6.1724837,-0.8252406
69,48,Cd,8.488974,2.5246381,116.907226039,14.4765534,20.5705171,-5.252813199999999,3.9793454,-13.8763418,-6.2399566,5.7772262,11.164704,-1.3228967,9.274996699999999,3.3764689,2.7183516
68,49,In,8.5038653,1.4547073000000001,116.904515729,15.549314700000002,18.538390500000002,-4.3411261,-0.3034715,-13.6893421,-5.4883743,8.7645947,7.5195173,-8.504467,9.8522516,5.935954,1.6341778
67,50,Sn,8.509611999999999,-1.7581788,116.902954036,16.506532800000002,16.8912048,-3.7793719,-5.302242100000001,-8.9742246,-11.6470407,6.9430816,9.436955,-16.2123956,9.8494212,3.0361199,5.2635937
66,51,Sb,8.4878981,-3.5440634,116.904841519,17.7787876,13.6811492,-1.6973561,-8.200995500000001,-7.678776300000001,-11.4470892,9.8888619,4.4025559,-22.146463,12.105089099999999,6.784226800000001,5.5766457
65,52,Te,8.4509203,-4.6569321,116.908646227,19.175368900000002,9.6395967,0.8077132,-10.910153399999999,-0.8584925,-15.7461646,7.903025800000001,5.5624516,-27.6375939,12.6187189,4.2651713,11.1106372
64,53,I,8.4044307,-6.2532213,116.913645649,20.2433996,8.0130981,1.5534816,-13.945467500000001,-0.9055194000000001,-15.4630089,11.0892325,2.4637467,-34.168,12.3350063,6.3151636,9.7044504
63,54,Xe,8.3442976,-7.6922462,116.920358758,21.671225800000002,6.7005215,1.7367747999999998,-16.7274405,3.7894746,-20.214000000000002,9.2097876,4.0536642,,12.8632649,3.3176430999999997,13.350731900000001
62,55,Cs,8.2718652,-9.035194299999999,116.928616723,22.936,4.7332380999999994,2.2015000000000002,-20.222,3.638582,-20.185,12.522,0.7351944,,12.874463599999999,5.4568533,11.7922363
61,56,Ba,8.1879546,-11.187,116.938316403,24.68,3.3790913000000002,2.3208040999999997,,8.299999900000001,-25.479,11.15,2.704,,12.952,2.092077,15.2743946
60,57,La,8.086,,116.950326,,1.149,3.069,,8.483,,14.292,-0.8200999000000001,,13.36,4.499,14.062000000000001
76,42,Mo,8.067,10.92,117.965249,7.303,,,24.63,,7.698,4.752,,43.018,3.571,3.374,
75,43,Tc,8.153,13.71,117.953526,8.219,32.638,-10.755,21.597,,8.128,3.222,14.89,36.264,8.631,6.123,-6.764
74,44,Ru,8.263,7.8870000000000005,117.938808,9.074,30.368000000000002,-9.745000000000001,18.388,-28.6,3.825,5.581,16.149,29.702,4.924,3.661,-6.804
73,45,Rh,8.3228539,10.501518200000001,117.930341116,10.2937333,28.251,-8.711461400000001,14.666962600000002,-24.036,3.465732,4.0613992,12.6859397,22.3413372,9.892884700000002,6.0825112,-3.444
72,46,Pd,8.4052197,4.1654444,117.919067273,11.6999676,25.897382699999998,-7.5920606,11.313291300000001,-23.187457900000002,-1.2777578,7.0357861999999995,13.7805705,16.2644853,6.0581917,3.7049257,-3.63666
71,47,Ag,8.43389,7.147846899999999,117.914595484,13.1537742,23.396001899999998,-6.2684428,7.6743745,-17.946014899999998,-1.2067231999999999,5.4432022,10.4188836,8.4424016,10.9880312,5.7360751,0.3218283
70,48,Cd,8.487834999999999,0.5265277,117.906921956,14.1317962,21.4485648,-5.6362184,4.951194,-17.566730500000002,-5.8299319,8.3545701,11.808702100000001,0.9891088,6.551822100000001,3.1449929,-0.6294248
69,49,In,8.485667,4.4246664,117.906356705,15.121054400000002,19.2634547,-4.7222819000000005,0.7680271000000001,-12.335229799999999,-4.9017523,6.3564596,8.0987507,-6.2571202999999995,12.1951193,5.7203583,3.4008122
68,50,Sn,8.516534100000001,-3.6566392999999997,117.90160663,16.2695003,17.518296300000003,-4.062825,-3.9620852,-12.523417100000001,-11.0845975,9.3264187,9.998779,-13.573775900000001,7.307722399999999,2.7475687,2.0780389
67,51,Sb,8.4789156,-0.3054459,117.905532194,17.3168201,14.324387399999999,-1.8513124,-7.0251474,-6.3421397,-10.9720215,7.4279581,4.8874324,-19.5868271,14.2405821,6.9016972,7.186555
66,52,Te,8.469697,-6.7197015,117.905860104,18.5696014,10.7427211,0.4440616,-9.611690699999999,-4.5819865,-15.3235078,10.6665756,6.3401653,-25.491,9.842069,4.1767095,7.9894901
65,53,I,8.406120300000001,-2.8919893,117.913074,19.6930388,8.7269787,1.1006441,-12.561679700000001,0.3795362,-14.8570276,8.6038063,3.1645272,-31.351,15.003543200000001,5.9557663000000005,11.678758
64,54,Xe,8.374981900000002,-9.669690500000002,117.916178678,21.174825900000002,7.3932167,1.3856935000000001,-15.879,-0.2725379,-19.657284500000003,11.9650383,4.92947,,10.0523936,3.1227928,9.630102500000001
63,55,Cs,8.2864053,-6.21,117.926559517,22.509,5.566665,1.8046423,-18.79,4.7402204,-19.022788300000002,9.987594,1.5130009,,15.3483077,5.111435800000001,13.5748303
62,56,Ba,8.227,-12.58,117.933226,23.963,3.731,2.461,,4.697,-24.0,12.813,2.995,,10.554,2.364,12.104000000000001
61,57,La,8.114,,117.946731,25.713,2.1550000000000002,2.641,,9.584,,11.42,-0.549,,15.471,4.165,15.726
76,43,Tc,8.126,11.91,118.956876,8.173,,-11.715,22.653000000000002,,8.759,4.9510000000000005,15.088000000000001,38.476,6.23,5.905,-9.293000000000001
75,44,Ru,8.22,10.743,118.94409,8.733,30.969,-9.955,19.327,-26.998,4.736,3.1510000000000002,16.079,31.897000000000002,6.771,3.998,-5.223