N,Z,element,be_per_a,beta_decay_energy,atomic_mass,s2n,s2p,qa,q2b,qep,qbn,s1n,s1p,q4b,qda,qpa,qna
149,100,Fm,7.4618649,-3.6618091,249.078926042,14.296000000000001,7.1681918,7.7090754,-8.267,-1.0077794,-11.5,6.449968300000001,4.069,,15.651556699999999,10.5643961,15.0753172
148,101,Md,7.444016899999999,-4.606,249.082857155,14.898,5.9753834,8.441,,-0.40700000000000003,-11.579,7.838,2.0058122000000003,,16.219,11.853820299999999,15.008552100000001
147,102,No,7.422000000000001,,249.087802,,4.464,9.17,,2.6,,6.973,2.45,,16.562,10.535,17.242
154,96,Cm,7.4789385,0.037582000000000004,250.078357541,10.545796200000002,,5.1698993,1.8192517000000001,,-4.9280633,5.8324263,7.4030000000000005,-1.0826052,13.138,10.701,9.426
153,97,Bk,7.4759594,1.7816696,250.078317195,11.3216831,12.189,5.533,-0.273,-7.441,-4.8420453,4.9656453,5.0876613,-5.4471348,16.2700649,12.2829554,11.445
152,98,Cf,7.4799567,-2.055,250.076404494,12.2102512,10.800353900000001,6.128508200000001,-2.9018569000000003,-6.8693309000000005,-8.076,6.6237149,5.9649678999999995,-10.396,13.7500904,10.5448698,11.2836327
151,99,Es,7.469,-0.847,250.078611,13.216000000000001,9.484,6.8340000000000005,-5.174,-3.91,-8.365,6.021,3.786,,16.698,11.98,13.382
150,100,Fm,7.4620905,-4.3269476000000004,250.079519765,13.9682362,7.7437004,7.557049200000001,-7.494,-2.9395111000000003,-11.1800771,7.518268,4.392,,14.484,10.357854900000001,13.609202600000001
149,101,Md,7.4416533000000005,-3.1670000000000003,250.084164934,14.691,6.478,8.1554227,,-0.065,-11.459,6.8531295000000005,2.4089734,,17.2121545,11.591000000000001,15.4671495
148,102,No,7.426,,250.087565,15.265,4.91,8.950000000000001,,0.758,,8.292,2.904,,15.329,10.494,15.540000000000001
155,96,Cm,7.4667233,1.42,251.082284988,10.245350700000001,,5.013,2.513,,-4.375342400000001,4.4129244,,0.689173,14.255,10.949,
154,97,Bk,7.469263700000001,1.093,251.080760555,10.7609877,12.454,5.65,0.716434,,-4.0136728,5.795342400000001,5.0505774,-3.7387677,15.1880924,12.699288699999999,10.312
153,98,Cf,7.4705014,-0.37656599999999996,251.079587171,11.7303877,11.1936567,6.1769599,-1.823827,-6.1435774,-7.162,5.1066728,6.1059954,-8.714,14.9994554,10.867983800000001,12.388635700000002
152,99,Es,7.4658842000000005,-1.447261,251.079991431,12.806000000000001,9.9127277,6.59711,-4.4552017,-5.7294294,-7.6319637,6.785,3.9477598,-13.318,15.4996214,12.137651400000001,12.026896800000001
151,100,Fm,7.4570013,-3.0079406,251.08154513,13.7029706,8.3418667,7.4244999,-6.890000000000001,-2.5004988,-10.5116502,6.1847026,4.555,,15.495000000000001,10.524000000000001,14.367259400000002
150,101,Md,7.4419005,-3.882,251.084774287,14.3568391,6.7860000000000005,7.963439900000001,-8.863,-1.548,-10.671,7.5037096000000005,2.394415,,16.158413200000002,11.9330111,14.314
149,102,No,7.423,-4.981,251.088942,15.08,5.248,8.751714,,1.488,,6.788,2.839,,16.379,10.765,16.598
148,103,Lr,7.4,,251.094289,,3.9290000000000003,9.469,,2.142,,,1.025,,16.754,12.005,16.528
156,96,Cm,7.46,0.521,252.08487,10.076,,,3.021,,-4.243,5.663,,2.239,,10.816,
155,97,Bk,7.4590000000000005,2.5,252.08431,10.56,,5.547,1.24,,-3.672,4.765,5.402,-1.933,16.256,12.648,11.077
154,98,Cf,7.4653474,-1.26,252.081626507,11.2783616,11.5329193,6.2169469,-0.7820001999999999,-7.9023418,-6.5482548,6.1716888,6.4823418,-6.83676,13.793411899999999,11.0523328,10.9303168
153,99,Es,7.4572428,0.47799980000000003,252.082979173,12.073,10.2353373,6.738642,-3.1725077,-5.222341800000001,-6.7355159,5.2882548,4.129341800000001,-11.242,16.8350815,12.435932800000002,13.0946798
152,100,Fm,7.4560351,-3.6505075000000002,252.082466019,13.3982183,8.9316674,7.1537437,-6.0547598,-4.6073416,-10.2214563,7.2135157,4.983907599999999,,14.302,10.506,12.74028
151,101,Md,7.438444400000001,-2.4042523,252.086385,14.0746584,7.336,7.743,-8.07,-1.3334001000000002,-10.453,6.5709488,2.7806612,,17.1057323,11.8120306,14.939
150,102,No,7.4257992,-5.666,252.08896607,14.837,5.7787645,8.548661599999999,,-0.37640890000000005,-13.030000000000001,8.049,3.3843495,,15.183037,10.5544738,14.998629900000001
149,103,Lr,7.4,,252.095048,,4.44,9.1643375,,2.281,,7.364,1.601,,17.682,11.614,17.002
155,98,Cf,7.4548297,0.29107530000000004,253.085133723,10.976055700000002,11.9243617,6.1259499,-0.043987000000000005,-7.043,-6.0643669000000004,4.8043669,6.522,-5.0571344,14.7843874,11.213611199999999,11.9583762
154,99,Es,7.4528878999999995,-0.3350623,253.084821241,11.643697,10.7954371,6.739237600000001,-2.162,-6.813,-5.8774424,6.355442200000001,4.3130952,-9.5129849,15.586312099999999,12.7042055,11.704882900000001
153,100,Fm,7.4484712,-1.827,253.085180945,12.755895800000001,9.367374700000001,7.1978999,-5.0131474,-3.9780329,-9.1928876,5.542380100000001,5.2380329,-14.296000000000001,15.5448084,10.984,13.8216149
152,101,Md,7.438,-3.186,253.087143,13.937000000000001,7.917,7.5730769,-7.351,-3.411,-9.77,7.3660000000000005,2.9330000000000003,,15.925,11.965,13.594
151,102,No,7.4224719,-4.1647752,253.09056278,14.633000000000001,6.1780544,8.4146374,-9.283,0.2531143,-12.25,6.583992500000001,3.3973932000000002,,16.102754100000002,10.8236108,15.9329054
150,103,Lr,7.402918,-5.118,253.09503385,15.449,5.0212198,8.9176035,,0.767382,,8.085,1.6368703,,16.385,11.821,15.7707329
149,104,Rf,7.38,,253.100528,,3.786,9.43,,3.481,,,2.184,,16.523,,17.722
157,97,Bk,7.44,3.052,254.0906,10.284,,,2.399,,-2.98,4.607,,0.9410000000000001,16.048000000000002,12.609,
156,98,Cf,7.449225900000001,-0.6527561,254.087323575,10.8358513,12.292,5.926891800000001,0.4388739,,-5.740409,6.0314844,6.876,-3.3819165,13.518,10.977469300000001,10.3398163
155,99,Es,7.4435759,1.09163,254.088024337,11.4430952,11.118,6.617229900000001,-1.458,-6.223,-5.4227153,5.087653,4.5963813,-7.651735700000001,16.670348,12.7232254,12.4125724
154,100,Fm,7.444793600000001,-2.5500000000000003,254.086852424,12.0567254,9.7100312,7.3072696,-3.8207905,-5.6880113,-8.342,6.5143453000000004,5.396936,-12.298,14.318718,11.2550294,12.4139424
153,101,Md,7.432,-1.2710000000000001,254.08959,13.157,8.42,7.8020000000000005,-6.1930000000000005,-2.847,-8.977,5.792,3.182,,17.347,12.358,14.587
152,102,No,7.423590900000001,-4.9225753,254.090954211,14.2906947,6.6712409,8.2262032,-8.478,-1.9112078,-11.8714774,7.7067022,3.738,,14.967000800000001,10.620618200000001,14.4109058
151,103,Lr,7.401130600000001,-3.555,254.096238813,15.034,5.3991731000000005,8.8218308,,1.184,-12.067,6.948902100000001,2.0017799,,17.485323700000002,11.661,16.3255404
150,104,Rf,7.384,,254.100055,,4.248,9.21,,1.553,,8.512,2.611,,15.375,10.235,15.998000000000001
157,98,Cf,7.438,0.72,255.091046,10.635,,5.736,1.0090000000000001,,-5.256,4.603,6.873,-2.003,14.591000000000001,11.139,11.4
156,99,Es,7.4378216,0.2887717,255.090273504,11.0638854,11.417,6.4363399,-0.7528320000000001,-7.593,-4.8846023999999995,5.9762324,4.5411293,-5.858068500000001,15.4984824,12.9186818,11.201
155,100,Fm,7.435886000000001,-1.0416037,255.089963495,11.6877194,10.0790384,7.2405682,-3.0114686,-4.8299009999999996,-7.723,5.1733741,5.482657100000001,-10.529,15.5007861,11.3699101,13.412257100000001
154,101,Md,7.4287333,-1.9698648,255.091081702,12.473,8.7463594,7.905606,-5.1052364,-4.4410533999999995,-7.9525608000000005,6.682,3.3494234,-14.752,16.207327499999998,12.8895136,13.193860800000001
153,102,No,7.417940300000001,-3.1353716,255.093196439,13.6893982,7.111556800000001,8.428209800000001,-7.518,-1.3795586000000002,-10.9052713,5.982696,3.93,,16.35,11.208871,15.6417254
152,103,Lr,7.4025767,-4.382,255.096562399,14.7188018,5.803,8.555640799999999,-9.647,-0.794,-11.325000000000001,7.7698997,2.0649774,,16.2994166,11.9399903,15.126589599999999
151,104,Rf,7.382000000000001,-5.265,255.101267,15.455,4.607,9.0554615,,2.317,,6.9430000000000005,2.605,,16.517,10.657,17.105
150,105,Db,7.359,,255.106919,,3.507,9.34,,2.66,,,0.895,,16.664,,16.704
158,98,Cf,7.432,-0.14400000000000002,256.093442,10.443,,5.5600000000000005,1.556,,-5.12,5.84,,-0.782,13.358,10.976,
157,99,Es,7.428,1.7,256.093597,10.952,11.787,6.2250000000000005,-0.271,,-4.687,4.976,4.913,-4.562,16.554000000000002,12.747,11.903
156,100,Fm,7.4317888000000005,-1.971,256.091771699,11.560361,10.4345409,7.0252702000000005,-2.3382494,-6.613,-7.428590600000001,6.3869869,5.8934116,-8.737196,14.2014522,11.3383654,11.8296371
155,101,Md,7.421,-0.367,256.093888,12.139000000000001,9.116,7.737,-4.29,-3.922,-7.4270000000000005,5.457,3.633,-12.842,17.264,12.975,14.092
154,102,No,7.4165429000000005,-3.9235573,256.094281912,13.0429021,7.6574176,8.5815194,-6.3989466,-3.2663905,-10.1955777,7.0602061,4.3079942,,15.081,11.514000000000001,14.1238995
153,103,Lr,7.3981605,-2.4753893,256.098494024,14.0419201,6.284,8.8545692,-8.551,-0.38443689999999997,-10.654,6.272020400000001,2.3543018000000004,,17.7340984,12.2519624,16.22
152,104,Rf,7.3854349,-6.0760000000000005,256.101151464,15.122,5.079261499999999,8.9257062,,0.1210876,-13.444,8.179,3.0142841,,15.2869124,10.562576499999999,15.509698700000001
151,105,Db,7.359,,256.107674,,3.926,9.336131,,3.0620000000000003,,7.368,1.32,,17.808,11.521,17.421
158,99,Es,7.422000000000001,0.8130000000000001,257.095979,10.828,,6.05,0.41100000000000003,,-4.1530000000000005,5.853,4.926,-3.262,15.305,12.926,10.657
157,100,Fm,7.4221942,-0.4023347,257.095105419,11.352964,10.797,6.8636599,-1.656927,-5.74,-6.937,4.9659772,5.884,-7.2762513,15.2117074,11.4600412,12.8951443
156,101,Md,7.4175845,-1.2545923,257.095537343,11.9922331,9.6747071,7.557069900000001,-3.673,-5.481,-6.9018919,6.535,3.7812955,-11.161813500000001,15.9028138,12.9540059,12.644722900000001
155,102,No,7.4096587000000005,-2.418,257.096884203,12.707505600000001,8.1313431,8.4765999,-5.619324300000001,-2.5267032,-9.5708568,5.6472996,4.498,,16.1158024,11.659,14.9909452
154,103,Lr,7.397,-3.201,257.09948,13.425,6.755,9.067744000000001,-7.489,-2.08,-9.628,7.1530000000000005,2.447,,16.564,12.806000000000001,14.859
153,104,Rf,7.3817053,-4.2878969,257.102916796,14.606,5.5234873,9.0827769,,0.7543717000000001,-12.503,6.426921900000001,3.1691855,,16.629890200000002,11.0845568,16.7894791
152,105,Db,7.3619767000000005,,257.107520042,15.583,4.3709621,9.2058985,,1.1187113,,8.215,1.356678,,16.536,11.817,16.1548006
159,99,Es,7.412,2.2760000000000002,258.09952,10.625,,5.884,1.012,,-3.959,4.773,,-2.08,16.372,12.757,
158,100,Fm,7.418,-1.264,258.097077,11.201,11.192,6.66,-1.051,,-6.6370000000000005,6.235,6.266,-5.918,13.952,11.201,11.263
157,101,Md,7.4096615,0.213,258.098433634,11.908,10.072000000000001,7.2712826999999995,-3.092,-5.002,-6.628032500000001,5.3734402,4.1887585,-9.817352999999999,16.916360400000002,12.7539398,13.247515100000001
156,102,No,7.407,-3.3040000000000003,258.098205,12.488,8.585,8.15,-4.867,-4.402,-9.259,6.841,4.804,-13.818,14.732000000000001,11.499,13.323
155,103,Lr,7.392,-1.562,258.101753,13.107000000000001,7.252,8.9044827,-6.726,-1.5,-9.156,5.955,2.754,,17.67,12.834,15.586
154,104,Rf,7.3825257,-5.1633651,258.103429895,14.020290800000001,6.0566502,9.1961101,-8.952,-1.1916976,-11.8812658,7.593368900000001,3.61,,15.3085417,11.2610875,15.178806100000001
153,105,Db,7.3594803,-3.7880000000000003,258.108972995,14.933,4.8168424000000005,9.4368999,,1.553,,6.7179007,1.6476568,,17.996517400000002,12.042,17.2067996
152,106,Sg,7.3420000000000005,,258.11304,,3.504,9.67,,2.141,,,2.1470000000000002,,15.709,10.565,16.613
159,100,Fm,7.407,0.14,259.100596,11.029,,6.47,-0.375,,-6.058,4.793,6.287,-4.663,15.011000000000001,11.383000000000001,12.31
158,101,Md,7.405,-0.515,259.100445,11.571,10.417,7.05,-2.287,-6.4270000000000005,-5.985,6.198,4.151,-8.427,15.685,12.943,12.026
157,102,No,7.3999714,-1.7710000000000001,259.100998364,12.310319400000001,9.0886984,7.8539999,-4.288,-3.636,-8.774000000000001,5.469,4.899939900000001,-12.44,15.7977161,11.487,14.240986800000002
156,103,Lr,7.390000000000001,-2.516,259.1029,12.957,7.72,8.584,-6.140000000000001,-3.128,-8.565,7.002,2.916,,16.315,12.892,14.041
155,104,Rf,7.377,-3.624,259.105601,13.642,6.458,9.13,-8.153,-0.399,-11.212,6.049,3.704,,16.412,11.484,16.19
154,105,Db,7.3603626,-4.5280000000000005,259.109491859,14.3059004,5.252,9.6187999,,-0.08,-11.376,7.5879997,1.6422876000000002,,16.8354396,12.633084,15.8908203
153,106,Sg,7.34,,259.114353,,3.9250000000000003,9.7650775,,2.886,,6.848,2.277,,17.076,11.085,17.944
160,100,Fm,7.402,-0.784,260.102809,10.803,,6.3,0.156,,-5.87,6.01,,-3.382,13.774000000000001,11.226,
159,101,Md,7.396,0.9400000000000001,260.10365,11.283,10.731,6.94,-1.727,,-5.601,5.086,4.4430000000000005,-7.123,16.834,12.824,12.793000000000001
158,102,No,7.397,-2.6670000000000003,260.102641,12.01,9.395,7.7,-3.5380000000000003,-5.383,-8.312,6.541,5.243,-10.938,14.63,11.481,12.666
157,103,Lr,7.383,-0.871,260.105504,12.648,7.992,8.396,-5.396,-2.576,-8.162,5.6450000000000005,3.092,-14.847,17.51,12.894,14.931000000000001
156,104,Rf,7.377,-4.525,260.10644,13.339,6.907,8.9,-7.4,-2.22,-10.914,7.29,3.992,,15.077,11.347,14.547
155,105,Db,7.357,-2.875,260.111297,13.978,5.687,9.501,-9.450000000000001,0.533,-10.918000000000001,6.390000000000001,1.983,,18.039,12.67,16.654
154,106,Sg,7.3425632,-6.5760000000000005,260.114383435,14.891,4.3747845,9.900587100000001,,0.892,,8.043000000000001,2.7324969,,15.7505995,11.257265100000001,16.3275089
153,107,Bh,7.314,,260.121443,,2.962,10.4002999,,3.843,,,0.685,,18.538,,18.615000000000002
160,101,Md,7.391,0.123,261.105828,11.128,,6.75,-0.979,,-5.103,6.043,4.476,-5.73,15.585,13.016,11.523
159,102,No,7.388,-1.102,261.105696,11.767,9.827,7.44,-2.863,-4.6000000000000005,-7.893,5.226,5.384,-9.55,15.602,11.629,13.675
158,103,Lr,7.381,-1.7610000000000001,261.106879,12.436,8.585,8.14,-4.751,-4.281,-7.662,6.791,3.341,-13.522,16.189,12.944,13.513
157,104,Rf,7.3713858000000005,-2.99,261.108769591,13.191,7.3390902,8.646252800000001,-6.6867714,-1.58,-10.426,5.901,4.247,,16.178,11.4,15.487
156,105,Db,7.357,-3.697,261.111979,13.825000000000001,6.121,9.218,-8.771,-1.258,-10.311,7.436,2.129,,16.652,12.828,15.173
155,106,Sg,7.339771,-5.0744052,261.115948135,14.657,4.94,9.7136999,,1.568,-13.19,6.613809000000001,2.957,,16.7247902,11.3613568,17.307068899999997
154,107,Bh,7.3173313,,261.121395733,,3.4895537,10.5002083,,2.118,,8.115,0.7570568,,17.271,12.648,17.218109000000002
161,101,Md,7.382000000000001,1.566,262.109144,11.025,,6.54,-0.438,,-4.859,4.9830000000000005,,-4.586,16.612000000000002,12.827,
160,102,No,7.385,-2.004,262.107463,11.651,10.242,7.25,-2.291,,-7.527,6.425,5.766,-8.268,14.262,11.401,12.043000000000001
159,103,Lr,7.3740000000000006,-0.28700000000000003,262.109615,12.314,9.022,7.99,-4.148,-3.762,-7.284,5.523,3.6390000000000002,-12.147,17.206,12.89,14.188
158,104,Rf,7.37,-3.861,262.109923,12.898,7.795,8.49,-5.977,-3.352,-9.987,6.997,4.454,,14.826,11.406,13.959
157,105,Db,7.352,-2.116,262.114067,13.562000000000001,6.602,9.046,-7.9990000000000006,-0.593,-9.823,6.126,2.354,,17.816,12.75,16.049
156,106,Sg,7.3411736,-5.8830463,262.116338978,14.3210592,5.357,9.5998187,,-0.2381318,-12.7816554,7.707250200000001,3.228,,15.407,11.2421063,15.649000000000001
155,107,Bh,7.3157331,,262.122654688,15.014000000000001,3.999,10.3194999,,2.6550000000000002,,6.8986091,1.0418568000000001,,18.4154303,12.597,17.9074996
161,102,No,7.376,-0.54,263.110714,11.469,,7.0,-1.627,,-7.048,5.043,5.827,-7.066,15.261000000000001,11.443,13.01
160,103,Lr,7.371,-1.087,263.111293,12.031,9.487,7.68,-3.4410000000000003,-5.287,-6.795,6.508,3.721,-10.827,15.925,12.923,12.766
159,104,Rf,7.364,-2.353,263.112461,12.704,8.276,8.252,-5.439,-2.634,-9.568,5.707,4.638,-14.921000000000001,15.91,11.344,14.793000000000001
158,105,Db,7.352,-3.085,263.114987,13.341000000000001,7.025,8.834,-7.386,-2.2840000000000003,-9.33,7.214,2.571,,16.503,12.826,14.48
157,106,Sg,7.337,-4.301,263.118299,13.953,5.7010000000000005,9.403263,-9.483,0.514,-12.128,6.245,3.347,,16.598,11.386000000000001,16.694
156,107,Bh,7.3180000000000005,-5.182,263.122916,14.726,4.39,10.08,,0.9540000000000001,,7.827,1.162,,17.202,12.812,16.47
155,108,Hs,7.295,,263.128479,,2.9050000000000002,10.733499900000002,,4.0200000000000005,,,1.863,,17.309,11.419,18.777
162,102,No,7.371,-1.364,264.112734,11.233,,6.82,-1.064,,-6.73,6.19,,-5.772,14.054,11.296,
161,103,Lr,7.363,0.3,264.114198,11.873000000000001,9.871,7.4,-2.887,,-6.453,5.3660000000000005,4.043,-9.583,16.984,12.784,13.443
160,104,Rf,7.361,-3.1870000000000003,264.113876,12.46,8.605,8.040000000000001,-4.708,-4.343,-9.107,6.753,4.883,-13.489,14.68,11.381,13.266
159,105,Db,7.346,-1.5210000000000001,264.117297,13.134,7.422000000000001,8.56,-6.696,-1.696,-9.005,5.92,2.7840000000000003,,17.580000000000002,12.807,15.351
158,106,Sg,7.338,-5.175,264.11893,13.729000000000001,6.187,9.21,-8.78,-1.2630000000000001,-11.784,7.484,3.616,,15.241,11.339,15.111
157,107,Bh,7.315,-3.605,264.124486,14.437000000000001,4.873,9.86,,1.559,-11.791,6.61,1.526,,18.299,12.817,17.296
156,108,Hs,7.2983762,,264.12835633,,3.3838491,10.5907541,,2.079,,8.186,2.222,,16.0218537,11.3478108,17.2045631
162,103,Lr,7.359,-0.457,265.116193,11.578,,7.23,-2.149,,-5.913,6.213,4.066,-8.162,15.815,12.996,12.213000000000001
161,104,Rf,7.354,-1.692,265.116683,12.209,9.017,7.8100000000000005,-4.104,-3.61,-8.643,5.456,4.974,-12.21,15.732000000000001,11.449,14.235
160,105,Db,7.345,-2.412,265.1185,12.870000000000001,7.865,8.4,-6.013,-3.281,-8.472,6.9510000000000005,2.981,-16.242,16.337,12.854000000000001,13.923
159,106,Sg,7.333,-3.601,265.121089,13.544,6.54,9.051,-8.106,-0.5700000000000001,-11.235,6.0600000000000005,3.757,,16.395,11.405,16.048000000000002
158,107,Bh,7.316,-4.505,265.124955,14.244,5.293,9.662,-10.229000000000001,-0.156,-11.239,7.634,1.677,,16.911,12.89,15.788
157,108,Hs,7.2962474,-5.724,265.129791744,14.92,3.873,10.470324399999999,,2.828,,6.734238599999999,2.346,,17.115000000000002,11.5121813,18.1775746
156,109,Mt,7.272,,265.135937,,2.45,11.120000000000001,,3.378,,,0.228,,17.657,,18.019000000000002
163,103,Lr,7.349,1.526,266.119874,10.855,,7.57,-1.078,,-5.099,4.643,,-6.442,17.362000000000002,13.397,
162,104,Rf,7.351,-2.604,266.118236,12.081,9.452,7.61,-3.481,,-8.317,6.625,5.386,-11.004,14.472,11.331,12.653
161,105,Db,7.339,-0.877,266.121032,12.664,8.212,8.21,-5.364,-2.782,-8.125,5.713,3.239,-14.932,17.376,12.848,14.718
160,106,Sg,7.332,-4.487,266.121973,13.308,7.035,8.8,-7.522,-2.362,-10.849,7.248,4.054,,15.066,11.371,14.507
159,107,Bh,7.313,-3.036,266.12679,13.996,5.736,9.426,-9.569,0.433,-10.867,6.362,1.979,,18.032,12.773,16.64
158,108,Hs,7.2982610999999995,-6.5330066,266.130048783,14.566126800000001,4.221,10.3456864,,1.057,-13.556000000000001,7.831888200000001,2.544,,15.893,11.508000000000001,16.591
157,109,Mt,7.2707597999999996,,266.137062253,,2.863,10.9956467,,3.989,,7.023000000000001,0.5165345,,18.820323000000002,12.859,18.823
163,104,Rf,7.3420000000000005,-0.5700000000000001,267.121787,11.389000000000001,,7.890000000000001,-2.362,,-7.368,4.763,5.507,-9.214,15.921000000000001,11.933,14.08
162,105,Db,7.337,-1.792,267.122399,12.511000000000001,8.797,7.92,-4.751,-4.937,-7.675,6.798,3.411,-13.777000000000001,16.035,12.803,13.286
161,106,Sg,7.327,-2.958,267.124323,13.13,7.461,8.625,-6.851,-1.619,-10.369,5.882000000000001,4.223,-18.073,16.135,11.409,15.378
160,107,Bh,7.313,-3.8930000000000002,267.127499,13.773,6.195,9.23,-9.026,-1.264,-10.446,7.4110000000000005,2.141,,16.682,12.846,15.15
159,108,Hs,7.295,-5.133,267.131678,14.385,4.714,10.0375052,-11.222,1.7510000000000001,-13.086,6.553,2.736,,16.973,11.564,17.521
158,109,Mt,7.273000000000001,-6.089,267.137189,14.976,3.182,10.870000000000001,,2.398,,7.953,0.638,,17.601,13.092,17.48
157,110,Ds,7.248,,267.143726,,1.599,11.7767587,,5.4510000000000005,,,1.082,,17.966,,19.963
164,104,Rf,7.337,-1.584,268.123968,10.803,,8.040000000000001,-1.324,,-6.61,6.04,,-7.492,14.524000000000001,12.106,
163,105,Db,7.328,0.26,268.125669,11.823,9.181000000000001,8.26,-3.6470000000000002,,-6.8180000000000005,5.026,3.673,-12.091000000000001,17.634,13.234,14.473
162,106,Sg,7.3260000000000005,-3.907,268.125389,12.96,7.915,8.3,-6.168,-3.9330000000000003,-10.037,7.078,4.503,-16.849,14.77,11.281,13.756
161,107,Bh,7.309,-2.261,268.129584,13.540000000000001,6.612,9.02,-8.444,-0.596,-10.022,6.13,2.3890000000000002,,17.8,12.777000000000001,15.971