N,Z,element,be_per_a,beta_decay_energy,atomic_mass,s2n,s2p,qa,q2b,qep,qbn,s1n,s1p,q4b,qda,qpa,qna
135,81,Tl,7.71,7.238,216.0158,7.890000000000001,,,8.844,,2.3040000000000003,3.265,8.779,12.461,14.25,11.915000000000001,
134,82,Pb,7.74,1.606,216.00803,8.48,18.276,2.298,5.697,-16.017,-2.221,4.934,9.72,7.227,11.726,10.56,5.46
133,83,Bi,7.743499,4.091571,216.006305989,9.06789,15.169,5.0,3.6173200000000003,-11.326,-1.6556199999999999,3.8266500000000003,5.75722,2.90304,16.76757,13.94158,9.73658
132,84,Po,7.758819000000001,-0.474246,216.001913506,9.89017,12.61275,6.906350000000001,1.52955,-9.848790000000001,-5.03314,5.74719,7.13587,-1.5086600000000001,13.69398,11.878110000000001,10.63235
131,85,At,7.753002,2.003799,216.002422631,10.50614,11.12052,7.9497100000000005,-0.71428,-6.661630000000001,-4.64609,4.5588999999999995,4.490600000000001,-5.8877299999999995,17.43752,13.77431,13.1347
130,86,Rn,7.758657,-2.718082,216.000271464,11.570020000000001,9.855030000000001,8.19744,-3.0382100000000003,-6.4944,-8.136510000000001,6.64989,5.78035,-10.045459999999999,14.3435,11.696520000000001,12.552850000000001
129,87,Fr,7.742451,-0.32012799999999997,216.003189445,12.21298,8.22716,9.17426,-5.17345,-3.06227,-7.63411,5.418430000000001,3.14946,-14.82826,18.0015,13.531030000000001,15.196950000000001
128,88,Ra,7.737347,-4.8533170000000005,216.003533117,12.94429,6.96712,9.525770000000001,-7.00725,-2.82933,-10.810860000000002,7.31398,4.3159600000000005,-19.775270000000003,14.96059,11.70798,14.633510000000001
127,89,Ac,7.7112560000000006,-2.153937,216.008743367,14.44209,5.47484,9.23545,-9.654819999999999,0.5373600000000001,-10.848510000000001,5.95754,1.67831,,18.76247,12.662889999999999,17.34364
126,90,Th,7.697662,-7.500882,216.011055714,16.539189999999998,4.37234,8.07238,-12.76802,0.47562,-15.63692,8.69457,3.02125,,14.565280000000001,9.007700000000002,15.59918
125,91,Pa,7.659314,-5.267137,216.019108242,17.82894,3.22258,8.097,,4.47963,-15.19519,8.13604,0.41134,,17.81514,10.543180000000001,17.29092
124,92,U,7.631307,,216.024762747,,2.20647,8.530629999999999,,4.85579,,9.928049999999999,2.08656,,14.29164,8.26778,16.59267
136,81,Tl,7.695,6.073,217.01966,7.7410000000000005,,,9.583,,2.762,4.476,8.835,13.919,12.816,11.999,
135,82,Pb,7.719,3.5100000000000002,217.01314,8.245000000000001,18.546,2.149,6.356,-14.909,-1.705,3.311,9.767,8.581,13.040000000000001,10.639,6.708
134,83,Bi,7.731848,2.846444,217.009372,9.04199,15.759,4.52124,4.33533,-13.277000000000001,-1.12378,5.215350000000001,6.039,4.41537,15.09852,13.776790000000002,7.912
133,84,Po,7.74136,1.4888830000000002,217.006316216,9.71741,13.03667,6.66213,2.22502,-8.885,-4.44447,3.97022,7.27944,-0.00614,14.965,11.94833,11.71269
132,85,At,7.744616,0.736135,217.004717835,10.49224,11.812629999999999,7.201350000000001,0.08005,-8.76833,-3.9295500000000003,5.933350000000001,4.676760000000001,-4.30904,15.64715,13.72874,11.241790000000002
131,86,Rn,7.744403,-0.656089,217.003927562,11.31557,10.37773,7.88717,-2.23116,-5.412890000000001,-7.38377,4.66568,5.8871400000000005,-8.54728,15.62506,11.90239,13.77495
130,87,Fr,7.737775,-1.575067,217.004631902,12.14611,9.0076,8.46927,-4.38908,-5.231050000000001,-7.0478000000000005,6.72768,3.22725,-12.75382,16.19396,13.49839,13.34082
129,88,Ra,7.726911,-2.8140169999999998,217.006322806,12.786719999999999,7.51972,9.160770000000001,-6.31612,-1.6521800000000002,-10.32606,5.47274,4.37026,-17.084,16.2824,11.71242,15.8558
128,89,Ac,7.710338,-3.502107,217.009343777,13.46958,6.19233,9.8316,-8.36474,-1.5562500000000001,-9.66598,7.51204,1.8763800000000002,,16.880740000000003,13.47499,15.30878
127,90,Th,7.690594,-4.86263,217.013103444,14.858440000000002,4.9059,9.43531,-10.768,1.6257300000000001,-13.66475,6.16387,3.22759,,16.88597,10.62598,17.75945
126,91,Pa,7.66458,-5.905,217.018323692,16.93816,3.54015,8.4888,,1.63504,-14.06926,8.80212,0.51889,,16.85763,11.23758,16.27096
125,92,U,7.634,,217.024663,18.092,2.5260000000000002,8.428,,5.386,,8.164,2.115,,15.82,8.352,17.925
137,81,Tl,7.674,7.727,218.024885,7.68,,,9.964,,2.869,3.204,,15.082,14.032,11.836,
136,82,Pb,7.706,2.237,218.01659,8.169,18.984,1.851,7.097,,-1.348,4.8580000000000005,10.149000000000001,10.236,11.447000000000001,10.406,4.892
135,83,Bi,7.712827000000001,4.859136,218.014188,8.80059,16.080000000000002,4.327,5.11787,-12.386000000000001,-0.7388,3.5852399999999998,6.313,6.15692,16.447,13.73785,8.951
134,84,Po,7.731528000000001,0.258738,218.008971502,9.56815,13.701,6.11475,3.1395500000000003,-11.172,-4.10905,5.597930000000001,7.66203,1.70573,13.193719999999999,11.59163,9.661059999999999
133,85,At,7.729126,2.880816,218.008693735,10.30114,12.35377,6.8740000000000006,1.03905,-7.920770000000001,-3.63166,4.36779,5.07433,-2.74545,17.02655,13.50392,12.11524
132,86,Rn,7.738752000000001,-1.8417700000000001,218.005601052,11.17816,11.14301,7.26248,-1.4338199999999999,-7.95514,-7.16856,6.51247,6.46626,-7.14939,13.67149,11.33716,11.40545
131,87,Fr,7.726715,0.407947,218.007578274,12.05447,9.77549,8.01403,-3.78449,-4.62449,-6.90186,5.32679,3.88835,-11.624649999999999,17.51706,13.09173,13.96127
130,88,Ra,7.724997999999999,-4.192439,218.007140325,12.782540000000001,8.179640000000001,8.546,-5.71557,-4.2963000000000005,-10.12382,7.3098,4.95239,-15.243440000000001,14.39103,11.19716,13.46613
129,89,Ac,7.702177,-1.5231320000000002,218.011641093,13.44342,6.70528,9.3774,-7.84016,-0.75995,-9.43349,5.93138,2.33502,,18.26334,13.17393,16.171950000000002
128,90,Th,7.691602,-6.317029000000001,218.013276242,14.07423,5.50228,9.84909,-9.527870000000002,-0.81189,-12.77299,7.91036,3.6259,,14.93315,11.200180000000001,15.4794
127,91,Pa,7.659036,-3.2108380000000003,218.020057853,15.25808,4.03857,9.815,,2.6911300000000002,-12.361,6.45596,0.81098,,19.09624,12.62624,18.299560000000003
126,92,U,7.640719,,218.023504829,17.31438,2.9816700000000003,8.77481,,2.3998600000000003,,9.15,2.46277,,14.8062,8.89472,16.619419999999998
137,82,Pb,7.686,3.996,219.02177,8.104000000000001,,1.6460000000000001,7.597,,-1.0090000000000001,3.246,10.191,11.449,12.676,10.425,6.066
136,83,Bi,7.7,3.601,219.01748,8.59,16.609,3.947,5.886,-14.187000000000001,-0.146,5.005,6.46,7.665,14.753,13.667,7.211
135,84,Po,7.7133329999999996,2.2852829999999997,219.013614,9.344790000000001,14.136000000000001,5.9142,3.85196,-10.061,-3.48812,3.7468600000000003,7.82365,3.28708,14.6622,11.67142,10.848
134,85,At,7.7201960000000005,1.566675,219.011160647,10.14119,12.91183,6.34184,1.77831,-10.10893,-2.89259,5.7734,5.24979,-1.1734000000000002,15.223360000000001,13.47771,10.16849
133,86,Rn,7.723777,0.211635,219.009478753,10.971729999999999,11.63206,6.94619,-0.56488,-6.816470000000001,-6.30103,4.4592600000000004,6.557729999999999,-5.64199,15.14557,11.43679,12.69338
132,87,Fr,7.721171,-0.776515,219.009251553,11.839459999999999,10.35481,7.4486099999999995,-2.9517100000000003,-6.76937,-6.10472,6.51267,3.8885500000000004,-9.922360000000001,15.67007,13.228950000000001,12.0075
131,88,Ra,7.714053,-2.175199,219.010085176,12.638010000000001,8.84216,8.13793,-5.077109999999999,-3.11204,-9.52064,5.32821,4.953810000000001,-13.892290000000001,15.7905,11.28739,14.78782
130,89,Ac,7.7005490000000005,-2.90191,219.012420348,13.27683,7.32305,8.8265,-6.97065,-2.77861,-8.86858,7.34545,2.37066,-17.887169999999998,16.39063,13.14246,14.24493
129,90,Th,7.683725000000001,-4.068741,219.015535677,13.87702,5.9962100000000005,9.51274,-8.81518,0.53125,-12.283700000000001,5.966670000000001,3.66119,,16.47852,11.191049999999999,16.82671
128,91,Pa,7.661574,-4.7464390000000005,219.01990365,14.670910000000001,4.741479999999999,10.0846,-10.91652,0.40755,-11.425790000000001,8.21496,1.11558,,17.04516,13.10585,16.04214
127,92,U,7.636329,-6.170086,219.024999161,15.83,3.49715,9.94007,,3.63086,,6.67936,2.68617,,16.928970000000003,10.35141,18.63464
126,93,Np,7.604583,,219.031623021,,2.1896999999999998,9.1678,,3.48391,,,-0.27308,,17.194,11.25436,17.30384
138,82,Pb,7.672000000000001,2.85,220.02541,7.9270000000000005,,1.385,8.406,,-0.685,4.681,,13.057,11.200000000000001,10.22,
137,83,Bi,7.682,5.555,220.02235,8.540000000000001,16.939,3.676,6.4430000000000005,,0.066,3.535,6.7490000000000006,9.337,16.076,13.443,8.152000000000001
136,84,Po,7.7032240000000005,0.8877140000000001,220.016386,9.23607,14.768,5.359,4.6513800000000005,-12.304,-3.2039299999999997,5.48922,8.308,4.99322,12.75823,11.397549999999999,8.67
135,85,At,7.703703000000001,3.7636700000000003,220.015433,9.86505,13.41823,6.076840000000001,2.89343,-9.196,-2.5249699999999997,4.0916500000000005,5.59458,0.63206,16.729650000000003,13.356280000000002,11.292190000000002
134,86,Rn,7.7172540000000005,-0.870242,220.011392534,10.7479,12.32276,6.40474,0.34182999999999997,-9.35825,-6.0770100000000005,6.288640000000001,7.072970000000001,-4.05702,13.22472,11.0815,10.37496
133,87,Fr,7.709742,1.212075,220.012326778,11.719430000000001,11.19378,6.80074,-2.2613600000000003,-6.20273,-5.98328,5.20676,4.63605,-8.736,16.97578,12.68787,12.73409
132,88,Ra,7.711696,-3.473437,220.011025562,12.52356,9.52504,7.59246,-4.39885,-5.84813,-9.37055,7.19535,5.63649,-12.663,13.92193,10.819709999999999,12.25815
131,89,Ac,7.6923509999999995,-0.925417,220.01475445,13.24256,7.8933800000000005,8.34782,-6.4750000000000005,-2.16305,-8.79902,5.89711,2.9395700000000002,-16.567,17.80332,12.71808,15.07549
130,90,Th,7.684589,-5.549,220.015747926,13.840280000000002,6.56001,8.95311,-8.264,-2.0141500000000003,-11.942350000000001,7.87361,4.18935,,14.536299999999999,10.82948,14.42584
129,91,Pa,7.656000000000001,-2.715,220.021705,14.608,5.203,9.649000000000001,-10.093,1.36,-11.14,6.393,1.542,,18.562,12.877,17.161
128,92,U,7.640000000000001,-7.378,220.02462,15.104000000000001,4.011,10.21,,1.173,-14.595,8.425,2.896,,14.96,10.729000000000001,16.374
127,93,Np,7.603,,220.03254,,2.951,10.087,,4.482,,7.2170000000000005,0.265,,19.127,12.201,18.889
138,83,Bi,7.668,4.324,221.02587,8.327,,3.36,7.315,,0.763,4.792,6.86,10.82,14.530000000000001,13.508000000000001,6.564
137,84,Po,7.684481,2.9910270000000003,221.021228,9.05024,15.083,5.109,5.30233,-11.184000000000001,-2.67331,3.56102,8.334,6.80994,14.202,11.42177,9.967
136,85,At,7.694475000000001,2.311308,221.018017,9.75598,14.078000000000001,5.6278500000000005,3.50544,-11.325000000000001,-1.90067,5.66434,5.7697,2.25962,14.81217,13.28988,9.213090000000001
135,86,Rn,7.701393,1.1941300000000001,221.015535709,10.500620000000001,12.78788,6.16299,1.50761,-8.081010000000001,-5.08222,4.21197,7.193300000000001,-2.46895,14.78615,11.237309999999999,11.76092
134,87,Fr,7.7032560000000005,0.313479,221.014253757,11.483110000000002,11.69673,6.45774,-1.24582,-8.38743,-5.0642700000000005,6.276350000000001,4.623760000000001,-7.099,15.15869,12.924,10.82553
133,88,Ra,7.701135000000001,-1.559298,221.013917224,12.5731,10.44353,6.88039,-3.97656,-4.93724,-8.85119,5.37775,5.80748,-11.556180000000001,15.05685,10.76875,13.39287
132,89,Ac,7.690539,-2.417261,221.015591199,13.18901,8.672600000000001,7.783600000000001,-5.85318,-4.2481800000000005,-8.21731,7.29189,3.0361100000000003,-15.327,15.83963,12.73599,13.110389999999999
131,90,Th,7.676061,-3.435918,221.018186236,13.67365,7.03185,8.6258,-7.57962,-0.61885,-11.349,5.800050000000001,4.092280000000001,,16.0817,10.96082,15.9356
130,91,Pa,7.656974,-4.143707,221.021874846,14.30648,5.77113,9.247700000000002,-9.473,-0.65636,-10.628,7.913,1.58178,,16.6157,12.873600000000001,15.17908
129,92,U,7.634684,-5.33,221.026323299,14.90921,4.52934,9.889299999999999,,2.56193,-13.862,6.485,2.987,,16.690669999999997,10.700280000000001,17.79966
128,93,Np,7.607,,221.032045,15.75,3.2680000000000002,10.356,,2.342,,8.532,0.372,,17.274,12.819,16.812
139,83,Bi,7.649,6.243,222.030842,8.232,,3.124,7.776,,0.884,3.44,,12.351,15.771,13.315,
138,84,Po,7.674005,1.533239,222.02414,8.91983,15.761000000000001,4.6080000000000005,6.11406,,-2.36778,5.35881,8.9,8.166080000000001,12.378,11.068,7.854
137,85,At,7.6773869999999995,4.58082,222.022494,9.56536,14.444,5.312069999999999,4.5749200000000005,-10.434000000000001,-1.5897100000000002,3.90102,6.1097,4.33155,16.40037,13.13572,10.317
136,86,Rn,7.694497,-0.005900000000000001,222.017576286,10.38251,13.4692,5.59039,2.05202,-10.690520000000001,-4.9764,6.17053,7.69949,-0.83091,12.70726,10.84018,9.337250000000001
135,87,Fr,7.690947,2.0579169999999998,222.01758262,11.24685,12.57558,5.85503,-0.24337,-7.69359,-4.65702,4.9705,5.38229,-5.776,16.476830000000003,12.41276,11.62843
134,88,Ra,7.6966920000000005,-2.301285,222.015373355,12.092690000000001,10.86983,6.677930000000001,-2.88292,-7.4402,-8.27424,6.7149399999999995,6.24607,-9.952639999999999,13.54867,10.56648,11.13719
133,89,Ac,7.682802,-0.581637,222.017843887,13.264840000000001,9.438790000000001,7.13744,-5.533,-3.9447900000000002,-8.39021,5.97295,3.63131,-14.397,17.06203,12.09125,13.650110000000002
132,90,Th,7.676658000000001,-4.9510000000000005,222.0184683,13.608620000000002,7.64508,8.12703,-7.06972,-3.0496700000000003,-11.24449,7.80858,4.60897,,14.17023,10.49769,13.45523
131,91,Pa,7.651,-2.118,222.023784,14.206,6.167,8.886000000000001,-8.864,0.343,-10.437,6.293,2.075,,18.196,12.547,16.232
130,92,U,7.637764000000001,-6.746,222.026057953,14.803,4.97421,9.48117,,0.04349,-13.648,8.31849,3.39243,,14.765,10.59675,15.447840000000001
129,93,Np,7.604,,222.0333,15.435,3.778,9.91,,3.353,,6.902,0.79,,18.796,12.596,18.125
140,83,Bi,7.636,5.058,223.0345,8.104000000000001,,,8.709,,1.579,4.664,,13.754,,13.331,
139,84,Po,7.655,3.6510000000000002,223.02907,8.838000000000001,,4.375,6.689,,-1.946,3.479,8.94,9.845,13.692,11.124,9.056000000000001
138,85,At,7.668055000000001,3.038267,223.025151,9.49736,15.248000000000001,4.721,5.04561,-12.59,-1.01552,5.5963400000000005,6.34723,5.60212,14.36506,13.0286,8.256
137,86,Rn,7.678171000000001,2.0073440000000002,223.021889285,10.22432,13.96196,5.28346,3.15643,-9.3855,-4.05968,4.053780000000001,7.85226,1.00391,14.31782,10.87805,10.772680000000001
136,87,Fr,7.683664,1.1490850000000001,223.019734313,11.03753,12.97827,5.5614,0.55651,-9.8596,-4.009110000000001,6.06703,5.27878,-3.9382800000000002,14.621780000000001,12.63437,9.65305
135,88,Ra,7.685309,-0.592573,223.018500719,11.87314,11.816049999999999,5.97899,-2.15252,-6.42787,-7.45948,5.1582,6.433770000000001,-8.603700000000002,14.666830000000001,10.61504,12.267629999999999
134,89,Ac,7.679143,-1.5599480000000001,223.019136872,12.839860000000002,10.02935,6.7832,-4.49479,-5.84119,-7.44855,6.86691,3.7832800000000004,-12.774000000000001,15.57288,12.419690000000001,11.98996
133,90,Th,7.668640000000001,-2.9348449999999997,223.020811546,13.69717,8.15592,7.56663,-6.451180000000001,-2.22333,-10.84,5.8886,4.52461,,15.573530000000002,10.506200000000002,14.76199
132,91,Pa,7.651971,-3.51633,223.023962232,14.19825,6.7803700000000005,8.32628,-8.279,-1.58977,-10.02347,7.905,2.17141,,16.09111,12.51563,14.22339
131,92,U,7.632694000000001,-4.763,223.027737168,14.82562,5.681310000000001,8.940700000000001,,1.3449200000000001,-13.253,6.507140000000001,3.607,,16.17152,10.483,16.814310000000003
130,93,Np,7.6080000000000005,,223.03285,15.393,4.355,9.635,,1.156,,8.49,0.962,,16.79,12.530000000000001,16.028
141,83,Bi,7.617,6.92,224.039539,8.041,,,9.119,,1.68,3.378,,15.082,,,
140,84,Po,7.644,2.199,224.03211,8.719,,3.8160000000000003,7.465,,-1.589,5.24,9.515,11.084,11.892,10.677,
139,85,At,7.650735,5.265917000000001,224.029749,9.38465,15.596,4.4670000000000005,5.9624,-11.714,-0.7500399999999999,3.78831,6.656000000000001,7.47688,15.93556,12.80132,9.26
138,86,Rn,7.670751,0.6964819999999999,224.024095804,10.06974,14.619110000000001,4.7567200000000005,3.61918,-11.922,-4.00861,6.01596,8.27188,2.45136,12.202879999999999,10.526430000000001,8.31774
137,87,Fr,7.670367000000001,2.922699,224.0233481,10.772120000000001,13.782350000000001,4.94795,1.51448,-8.96836,-3.55601,4.705100000000001,5.93009,-2.11366,16.08722,12.14125,10.612290000000002
136,88,Ra,7.6799219999999995,-1.408219,224.020210453,11.63691,12.124229999999999,5.78892,-1.1678199999999999,-8.85279,-7.07128,6.47871,6.84545,-6.89634,13.15862,10.41268,10.0009
135,89,Ac,7.670143,0.240401,224.021722239,12.529969999999999,10.72191,6.3269,-3.62814,-5.43723,-7.22301,5.663060000000001,4.28814,-11.642,16.62475,12.13438,12.603250000000001
134,90,Th,7.667724000000001,-3.868544,224.021464157,13.35201,8.904399999999999,7.29857,-5.7285200000000005,-4.52855,-10.39826,7.46341,5.12112,,14.08307,10.33468,12.67632
133,91,Pa,7.646961,-1.859974,224.02561721,14.435,7.337140000000001,7.6936800000000005,-8.013,-1.25257,-10.046040000000001,6.529710000000001,2.81252,,17.369970000000002,11.78596,14.98557
132,92,U,7.635165,-6.1530000000000005,224.027613974,14.693209999999999,6.058800000000001,8.62824,,-0.95255,-12.949,8.186069999999999,3.88739,,14.278,10.21002,14.42828
131,93,Np,7.604,,224.03422,15.286,4.857,9.232,,2.266,,6.795,1.25,,18.314,12.22,17.146
141,84,Po,7.626,4.136,225.03707,8.691,,,7.996,,-1.252,3.451,9.589,12.537,13.105,10.665000000000001,
140,85,At,7.641,3.861,225.03263,9.176,16.32,3.872,6.574,-13.725,-0.122,5.388,6.805,8.757,14.027000000000001,12.772,7.312
139,86,Rn,7.654357,2.713531,225.028485574,9.99823,15.122,4.33547,4.54103,-10.665000000000001,-3.28579,3.98227,8.46584,4.224010000000001,13.81694,10.445170000000001,9.694280000000001
138,87,Fr,7.66294,1.827501,225.025572478,10.70442,14.18534,4.612970000000001,2.18326,-11.17938,-3.07662,5.99932,5.91346,-0.5201100000000001,14.141680000000001,12.31246,8.51399
137,88,Ra,7.667586,0.355763,225.023610574,11.38283,12.97457,5.09677,-0.31701999999999997,-7.74096,-6.31234,4.90412,7.04448,-5.3868100000000005,14.321520000000001,10.47906,11.267299999999999
136,89,Ac,7.66569,-0.672781,225.023228647,12.33117,11.32299,5.9351400000000005,-2.70338,-7.40024,-6.42771,6.6681099999999995,4.47754,-9.950360000000002,15.114840000000001,12.18121,10.90564
135,90,Th,7.659222,-2.030598,225.023950907,13.21834,9.50112,6.9214,-5.06979,-3.8047600000000004,-9.62347,5.75492,5.21298,,15.19505,10.55271,13.63634
134,91,Pa,7.64672,-3.039196,225.026130844,14.12259,8.0631,7.3927,-7.24698,-3.18238,-9.45284,7.5928700000000005,2.94198,,15.665700000000001,12.00167,13.36565
133,92,U,7.629736,-4.207783,225.029393555,14.59972,6.583850000000001,8.01463,,0.09722,-12.567,6.41365,3.77133,,15.77005,10.089,15.82321
132,93,Np,7.607557,,225.033910797,15.155000000000001,5.31091,8.7865,,0.43646,,8.359,1.4235200000000001,,16.4615,12.178930000000001,15.08
142,84,Po,7.614,2.934,226.04031,8.504,,,8.801,,-0.917,5.053,,13.881,11.429,10.276,
141,85,At,7.6240000000000006,5.867,226.03716,9.239,16.794,3.46,7.094,,0.009000000000000001,3.852,7.205,10.305,15.415000000000001,12.4,8.124
140,86,Rn,7.64641,1.226653,226.030861382,9.84054,15.741,3.8360100000000004,5.07937,-13.072000000000001,-3.14473,5.858270000000001,8.936,5.5495600000000005,11.74698,10.18324,7.315
139,87,Fr,7.648376000000001,3.8527150000000003,226.029544515,10.370709999999999,14.76842,4.142600000000001,3.2112800000000004,-10.163,-2.5438899999999998,4.371390000000001,6.30257,1.48726,15.78625,11.994860000000001,9.738940000000001
138,88,Ra,7.661962000000001,-0.6414400000000001,226.025408455,11.30073,13.35521,4.8707,0.47019,-10.15529,-6.04084,6.3966,7.44176,-3.6610500000000004,12.63001,10.14948,8.92449
137,89,Ac,7.655662,1.1116300000000001,226.026097069,12.06751,12.017290000000001,5.50624,-1.72401,-6.80032,-6.07218,5.3994,4.97282,-8.468,16.19415,11.940010000000001,11.57327
136,90,Th,7.657119,-2.835642,226.024903686,12.93873,10.20622,6.45253,-4.13124,-6.08445,-9.21441,7.18381,5.728680000000001,,13.674299999999999,10.235809999999999,11.61073
135,91,Pa,7.641109999999999,-1.295593,226.027947872,13.971639999999999,8.778799999999999,6.986890000000001,-6.744,-2.89304,-9.417959999999999,6.37877,3.5658200000000004,,16.750349999999997,11.5115,13.8538
134,92,U,7.631916,-5.448,226.029338749,14.53602,7.24281,7.70084,,-2.27023,-12.33015,8.12237,4.30083,,14.1774,9.872250000000001,13.589440000000002
133,93,Np,7.604,,226.035188,15.241,5.663,8.197510000000001,,1.147,,6.882000000000001,1.8920000000000001,,17.766000000000002,11.804,16.103
143,84,Po,7.596,4.797,227.04539,8.393,,,9.395,,-0.405,3.339,,15.103,,10.314,