N,Z,element,be_per_a,beta_decay_energy,atomic_mass,s2n,s2p,qa,q2b,qep,qbn,s1n,s1p,q4b,qda,qpa,qna
127,79,Au,7.84,6.731,205.98474,9.707,19.105,0.137,8.039,-15.544,0.002,3.516,8.537,5.814,14.418000000000001,10.276,6.121
126,80,Hg,7.869172,1.307566,205.977513756,12.398290000000001,17.602,-0.67859,2.83978,-15.268,-5.1962399999999995,6.72938,9.465,-2.75713,10.415000000000001,7.06169,4.327
125,81,Tl,7.871721,1.5322170000000002,205.976110026,14.04986,16.181,-0.32530000000000003,-2.2250900000000002,-10.773,-6.55445,6.5038100000000005,7.254600000000001,-9.82365,13.14758,7.87995,6.5364700000000004
124,82,Pb,7.875362,-3.7573060000000003,205.974465124,14.81833,13.67338,1.13482,-5.59691,-8.78681,-10.7924,8.08666,7.25368,-14.65262,11.271370000000001,6.83985,7.13008
123,83,Bi,7.853324,-1.839604,205.978498757,15.525020000000001,10.26007,3.5270200000000003,-7.598560000000001,-3.4963699999999998,-10.5782,7.03509,3.54701,-18.78586,15.79242,9.62233,11.3795
122,84,Po,7.840597,-5.758956,205.980473654,15.99006,7.65672,5.327020000000001,-9.05571,-1.70741,-13.28804,8.73859,4.41314,-21.75421,13.168030000000002,8.200209999999998,12.244280000000002
121,85,At,7.808843,-3.2967530000000003,205.986656148,16.69692,6.36176,5.886850000000001,-11.187299999999999,1.34582,-12.79125,7.52909,2.19729,-25.90917,16.62233,9.74523,14.74151
120,86,Rn,7.789041,-7.890549,205.990195358,17.305410000000002,5.36966,6.3837399999999995,-12.698500000000001,1.09946,-15.89447,9.4945,3.4499899999999997,,13.45327,7.89365,13.82433
119,87,Fr,7.7469399999999995,-4.807955,205.998666211,17.99236,3.94492,6.9234,-14.721870000000001,4.4405600000000005,-15.15272,8.00392,0.8216,,17.43858,9.77534,16.56654
118,88,Ra,7.719802,-9.913913,206.003827763,18.63388,3.0422100000000003,7.41526,,3.98635,-18.612470000000002,10.34477,2.41362,,13.66904,7.55318,15.365639999999999
117,89,Ac,7.667879,,206.014470787,,1.7058,7.9583,,7.50029,,8.69856,-0.35149,,18.133470000000003,9.681780000000002,18.24944
129,78,Pt,7.798,6.2700000000000005,206.995126,7.716,,0.675,11.947000000000001,,1.603,2.98,,17.912,12.13,10.011000000000001,
128,79,Au,7.825,5.6770000000000005,206.988395,8.183,19.428,1.455,10.224,,2.064,4.667,8.467,9.245000000000001,12.867,11.976,4.524
127,80,Hg,7.84861,4.547008,206.9823,10.34234,18.099,0.714,5.964600000000001,-14.145,-2.30539,3.61296,9.562,0.6583300000000001,12.993,9.027000000000001,7.081
126,81,Tl,7.866797,1.4175950000000002,206.977418586,13.356209999999999,16.843,-0.31593,-0.97982,-14.109,-5.320180000000001,6.852399999999999,7.37762,-7.80704,11.96409,8.51975,5.2620000000000005
125,82,Pb,7.869866,-2.3974200000000003,206.975896735,14.824440000000001,14.74225,0.39230000000000004,-5.3062700000000005,-8.795219999999999,-10.495090000000001,6.73778,7.4876499999999995,-13.81728,12.07963,6.75815,7.8845
124,83,Bi,7.8545050000000005,-2.908852,206.978470471,15.132760000000001,10.81169,3.28183,-6.82721,-5.09023,-9.93727,8.09767,3.5580100000000003,-17.21029,14.42642,9.91932,9.93792
123,84,Po,7.836673,-3.9183580000000005,206.981593252,15.76701,7.95348,5.21587,-8.51101,-0.64916,-12.787370000000001,7.028420000000001,4.4064700000000006,-20.69026,14.62954,8.364180000000001,13.610520000000001
122,85,At,7.813964,-4.5926540000000005,206.985799783,16.3981,6.740850000000001,5.8725000000000005,-10.38308,-0.48811000000000004,-12.16577,8.86902,2.32771,-24.37365,15.004790000000002,9.977879999999999,13.064879999999999
121,86,Rn,7.787998,-5.790421,206.9907302,17.067610000000002,5.6913100000000005,6.25121,-12.17925,2.26494,-15.46366,7.57311,3.4940100000000003,,15.04799,8.10473,15.352879999999999
120,87,Fr,7.756246,-6.388826,206.996946474,17.67716,4.450340000000001,6.8933,-13.99057,2.29641,-14.481200000000001,9.67324,1.00035,,15.57625,9.98991,14.67749
119,88,Ra,7.721602,-7.601748,207.003805161,18.43714,3.3236700000000003,7.273270000000001,,5.3884799999999995,-18.00628,8.09237,2.5020700000000002,,15.565100000000001,7.801229999999999,17.161080000000002
118,89,Ac,7.681099000000001,,207.011965973,19.10309,2.1219,7.8449,,5.09968,,10.40454,-0.29172000000000003,,16.01805,9.9535,16.18532
130,78,Pt,7.783,5.111,207.998937,7.501,,,12.275,,1.748,4.521,,20.758,,9.834,
129,79,Au,7.804,7.164000000000001,207.99345,8.029,,1.161,10.649000000000001,,2.315,3.363,8.85,12.769,14.241,11.729000000000001,5.505
128,80,Hg,7.834191,3.484726,207.985759,8.46224,18.212,2.232,8.48319,-16.014,-0.30227,4.84928,9.744,4.20419,11.66,10.368,5.347
127,81,Tl,7.847183,4.9984660000000005,207.982017992,10.6394,17.113,1.475,2.1200900000000003,-13.229000000000001,-2.3694,3.787,7.55166,-4.28026,14.906469999999999,10.40166,7.666
126,82,Pb,7.867453,-2.878375,207.976651918,14.10565,15.38074,0.51663,-4.279,-12.550120000000001,-9.76529,7.36787,8.003120000000001,-12.09301,11.215580000000001,6.93633,6.1855400000000005
125,83,Bi,7.849853,-1.400628,207.979741981,14.984580000000001,11.194799999999999,3.05101,-6.40035,-5.12474,-9.795770000000001,6.88691,3.7071500000000004,-16.2043,15.62617,9.76407,10.59705
124,84,Po,7.839358000000001,-4.999725000000001,207.981245616,15.42356,8.26195,5.215380000000001,-7.814,-2.30652,-12.3135,8.39514,4.703939999999999,-19.19745,13.26949,8.45896,11.947040000000001
123,85,At,7.811560000000001,-2.814279,207.986613042,16.18279,7.01953,5.75111,-9.80395,0.29579000000000005,-11.90643,7.313770000000001,2.61307,-23.223110000000002,16.42961,9.91558,14.241040000000002
122,86,Rn,7.794268,-6.989672,207.989634295,16.66526,6.04486,6.26074,-11.383450000000002,0.20121,-14.88257,9.09215,3.71715,-26.33932,13.48493,8.18041,13.51221
121,87,Fr,7.756903,-4.3937740000000005,207.997138018,17.56614,4.81414,6.7846,-13.41915,3.27253,-14.28172,7.89289,1.32013,,17.17785,9.90792,15.952430000000001
120,88,Ra,7.732017,-9.02538,208.001854929,17.98032,3.71712,7.27313,-14.95587,3.07365,-17.48969,9.887950000000002,2.71677,,13.68108,7.90172,15.084040000000002
119,89,Ac,7.684865,-5.930495,208.011544073,18.86885,2.58229,7.721010000000001,,6.30861,,8.46431,0.08022,,17.898500000000002,9.7783,17.70945
118,90,Th,7.652591999999999,,208.017910722,,1.45975,8.20203,,5.85028,,,1.75147,,13.91508,7.44109,16.49114
130,79,Au,7.788,6.104,208.997273,7.873,,0.995,11.105,,2.654,4.51,8.839,15.718,12.711,11.956,
129,80,Hg,7.813,5.0,208.99072,8.299,18.682000000000002,1.897,8.97,-14.943,0.035,3.45,9.832,7.722,12.877,10.434000000000001,6.634
128,81,Tl,7.833397,3.9698890000000002,208.98535175,8.75294,17.413,2.7,4.61391,-14.832,0.03252000000000001,4.96594,7.66832,-0.76214,13.55349,12.1651,6.216
127,82,Pb,7.848648000000001,0.6440159999999999,208.981089898,11.30523,15.70514,2.24818,-1.24855,-11.638209999999999,-6.81574,3.93737,8.15348,-8.6736,14.13061,9.502780000000001,8.97756
126,83,Bi,7.847987,-1.89257,208.980398519,14.34667,11.80215,3.1373,-5.37605,-8.7975,-8.86038,7.45976,3.79903,-14.489090000000001,14.904190000000002,10.390979999999999,9.641110000000001
125,84,Po,7.8351880000000005,-3.4834780000000003,208.982430276,15.362950000000001,8.49199,4.979229999999999,-7.42504,-1.90646,-11.967540000000001,6.967810000000001,4.78484,-18.224310000000003,14.39934,8.52624,13.06589
124,85,At,7.814777,-3.941564,208.986169944,15.79783,7.405930000000001,5.7569799999999995,-9.113040000000002,-1.3013599999999999,-11.29834,8.48406,2.70199,-21.726419999999997,14.97397,10.17012,12.79207
123,86,Rn,7.792175,-5.171477,208.990401388,16.448919999999998,6.373220000000001,6.155430000000001,-10.79927,1.23958,-14.34645,7.35678,3.7601500000000003,-25.308,14.99717,8.35272,14.89403
122,87,Fr,7.763688,-5.627791,208.995953197,17.06787,5.120100000000001,6.7774600000000005,-12.61338,1.41133,-13.56874,9.17497,1.4029500000000001,,15.576,10.227450000000001,14.30655
121,88,Ra,7.733017,-6.98559,209.001994879,17.8289,4.08496,7.14309,-14.509,4.22484,-16.966330000000003,7.94095,2.76483,,15.41337,7.96469,16.63759
120,89,Ac,7.695850000000001,-7.523000000000001,209.00949422,18.44506,2.88979,7.72871,,4.22076,-15.91124,9.98074,0.17302,,16.01013,10.14233,15.73263
119,90,Th,7.656000000000001,,209.017571,,1.7550000000000001,8.103,,7.3500000000000005,,8.388,1.675,,15.932,7.752,18.448
131,79,Au,7.766,7.694,210.0025,7.713,,,11.576,,2.902,3.202,,17.121,14.030000000000001,11.733,
130,80,Hg,7.799,3.882,209.99424,8.243,18.953,1.841,9.363,,0.20800000000000002,4.792,10.114,10.588000000000001,11.447000000000001,10.309000000000001,4.821
129,81,Tl,7.813588,5.481534,209.99007297,8.63947,17.724,2.543,5.54501,-13.996,0.29636,3.6735300000000004,7.892,2.72521,14.72924,12.10453,7.2090000000000005
128,82,Pb,7.835965000000001,0.063476,209.984188301,9.12254,16.041040000000002,3.79238,1.2246400000000002,-13.373000000000001,-4.54116,5.18517,8.37272,-5.123729999999999,12.73244,11.17,7.405340000000001
127,83,Bi,7.832542,1.161159,209.984120156,12.06439,12.619790000000002,5.0364700000000004,-2.8198000000000003,-8.43619,-6.4972,4.60463,4.4663,-11.458770000000001,17.66743,12.524120000000002,11.88887
126,84,Po,7.834346,-3.98096,209.982873601,14.62618,8.78248,5.4075299999999995,-6.34837,-5.62746,-11.14184,7.65836,4.9834499999999995,-16.39593,13.627889999999999,8.96554,12.14531
125,85,At,7.811662999999999,-2.367407,209.987147338,15.64494,7.6799,5.63119,-8.638969999999999,-1.00249,-11.102440000000001,7.160880000000001,2.89506,-20.76188,16.20822,10.03765,13.728850000000001
124,86,Rn,7.796665,-6.271565,209.989688854,16.09181,6.71312,6.15899,-10.047559999999999,-0.52765,-13.90652,8.735040000000001,4.0111300000000005,-23.66422,13.57591,8.4867,13.18741
123,87,Fr,7.763075,-3.775997,209.996421657,16.809919999999998,5.44128,6.671600000000001,-12.1229,2.26044,-13.26274,7.63495,1.6811300000000002,,17.033189999999998,10.165610000000001,15.540610000000001
122,88,Ra,7.7413680000000005,-8.346907999999999,210.000475356,17.4277,4.47956,7.1508400000000005,-13.61665,2.09487,-16.472330000000003,9.48674,3.07661,,13.81952,8.15119,14.72396
121,89,Ac,7.697896,-5.269747000000001,210.00943613,18.10617,3.12232,7.6072,,5.270300000000001,-15.649000000000001,8.12543,0.35749000000000003,,17.772650000000002,10.10927,17.28044
120,90,Th,7.6690760000000004,,210.015093437,18.76692,2.24635,8.06899,,4.912260000000001,,10.379,2.07333,,14.01702,7.777270000000001,16.161360000000002
131,80,Hg,7.7780000000000005,5.454,210.99933,8.122,,1.491,9.869,,0.552,3.33,10.242,11.808,12.627,10.341000000000001,6.0120000000000005
130,81,Tl,7.799791,4.41495,210.993475,8.57588,18.116,2.307,5.78113,-15.696,0.5791900000000001,4.90235,8.002,5.56927,13.277000000000001,12.051459999999999,5.67
129,82,Pb,7.817006999999999,1.366183,210.988735356,9.020940000000001,16.427,3.56958,1.93962,-12.417,-3.77229,3.8357600000000005,8.53495,-1.73754,13.86261,11.12124,8.41886
128,83,Bi,7.819774000000001,0.5734389999999999,210.987268698,9.7431,12.79232,6.7504,-0.21187,-9.90113,-3.97731,5.138470000000001,4.419600000000001,-7.71888,16.46632,14.75352,10.5374
127,84,Po,7.818784,-0.785307,210.986653085,12.20911,9.39587,7.59456,-3.6771700000000003,-4.99304,-8.531709999999999,4.55075,4.92956,-13.26459,16.536900000000003,11.30171,14.962430000000001
126,85,At,7.811354000000001,-2.8918600000000003,210.987496147,14.90728,7.96654,5.98245,-7.50701,-4.14426,-10.113809999999999,7.7463999999999995,2.9831,-18.84948,15.42963,10.68639,12.86936
125,86,Rn,7.793941,-4.615155,210.990600686,15.95699,6.96725,5.96545,-9.587430000000001,-0.09124,-13.49352,7.22195,4.0722,-22.665580000000002,14.83802,8.578520000000001,14.36059
124,87,Fr,7.7683599999999995,-4.972272,210.995555259,16.51331,5.83558,6.66225,-11.342459999999999,0.54296,-12.65436,8.87836,1.8244500000000001,-26.22,15.511610000000001,10.3794,13.97602
123,88,Ra,7.741087,-6.370191,211.000893213,17.168830000000003,4.80487,7.04187,-13.078149999999999,3.1478200000000003,-16.02899,7.6820900000000005,3.1237399999999997,,15.3124,8.362,16.13402
122,89,Ac,7.7071890000000005,-6.707958,211.007731894,17.78423,3.60616,7.62164,-14.878,3.24645,-14.92855,9.6588,0.52955,,16.0548,10.33841,15.51453
121,90,Th,7.67169,-8.17,211.014933183,18.6,2.5259899999999997,7.9407700000000006,,6.17841,,8.22059,2.1685,,15.77717,8.02099,17.82872
120,91,Pa,7.6290000000000004,,211.023704,,1.342,8.509,,6.001,,,-0.732,,16.424,10.26,16.973
132,80,Hg,7.763,4.308,212.00296,8.02,,1.322,10.306000000000001,,0.764,4.69,,13.127,11.139,10.161,
131,81,Tl,7.78,5.998,211.998335,8.447000000000001,18.458000000000002,2.125,6.567,,0.871,3.544,8.216,7.077,14.525,11.957,6.636
130,82,Pb,7.8043190000000005,0.569104,211.991895975,8.96298,16.761,3.29164,2.82064,-14.214,-3.76104,5.12722,8.75982,1.11076,12.40892,10.959959999999999,6.742
129,83,Bi,7.803313,2.251533,211.991285016,9.46861,13.44893,6.207260000000001,0.51027,-9.32893,-3.7567,4.33014,4.91398,-4.60199,17.32135,14.36075,11.173200000000001
128,84,Po,7.810243000000001,-1.7412660000000002,211.988867896,10.55898,10.21893,8.9542,-1.70988,-7.16551,-6.79354,6.008229999999999,5.79933,-10.17052,15.1333,12.75323,12.89156
127,85,At,7.7983400000000005,0.031387,211.990737223,12.798680000000001,8.41418,7.81709,-5.11225,-4.05806,-7.94413,5.052270000000001,3.48462,-15.905520000000001,18.03572,12.601930000000001,15.27684
126,86,Rn,7.794797,-5.14364,211.990703528,15.19747,7.28441,6.38507,-8.46064,-3.51601,-12.59068,7.97552,4.301310000000001,-20.770419999999998,14.02338,9.08706,13.35289
125,87,Fr,7.766845,-3.317,211.996225453,16.3254,6.1217299999999994,6.52899,-10.793270000000001,0.84233,-12.41931,7.44704,2.0495300000000003,-25.109330000000003,16.79961,10.28914,15.01305
124,88,Ra,7.747508,-7.476266,211.999786399,16.78439,5.172140000000001,7.03171,-12.309780000000002,1.26747,-15.4725,9.10231,3.34769,,13.845040000000001,8.43466,14.38848
123,89,Ac,7.708552,-4.83351,212.007812501,17.65504,3.9674400000000003,7.5183,-14.31606,4.12858,-14.70419,7.99623,0.8437000000000001,,17.54531,10.28313,16.693270000000002
122,90,Th,7.682062,-9.482550999999999,212.013001487,18.09127,2.90992,7.9580400000000004,,3.98981,-18.041,9.87068,2.38038,,14.03191,8.13105,15.89899
121,91,Pa,7.633643,,212.023181425,,1.77428,8.41521,,7.10217,,8.558,-0.39422,,18.24472,10.09,18.395950000000003
133,80,Hg,7.7410000000000005,5.882000000000001,213.00823,7.852,,,10.870000000000001,,1.1460000000000001,3.162,,14.32,,10.202,
132,81,Tl,7.76543,4.987343,213.001915,8.28082,,1.899,7.01545,,1.26134,4.737,8.262,8.36341,13.119,12.013,5.101
131,82,Pb,7.785171999999999,2.028103,212.996560867,8.85322,17.157,3.016,3.45005,-13.25,-3.1568899999999998,3.726,8.942,2.4924899999999997,13.585270000000001,10.90749,7.808
130,83,Bi,7.791021,1.4219490000000001,212.994383608,9.515139999999999,13.731580000000001,5.9882100000000005,1.34796,-10.97,-2.93346,5.1850000000000005,4.971760000000001,-1.67879,15.97212,14.36092,9.66174
129,84,Po,7.794024,-0.073989,212.992857083,10.36365,10.73858,8.53615,-0.95756,-6.3937,-6.09668,4.35541,5.8246,-6.999140000000001,15.916350000000001,13.002450000000001,13.72132
128,85,At,7.790003,-0.8835689999999999,212.992936514,11.07497,9.298399999999999,9.25415,-3.0267500000000003,-5.75061,-5.991300000000001,6.02269,3.49908,-12.734290000000001,16.563779999999998,14.2376,13.85879
127,86,Rn,7.782182,-2.143179,212.993885064,13.083260000000001,7.8414,8.24515,-6.04158,-2.6155100000000004,-10.25138,5.10774,4.35678,-17.816110000000002,16.66204,11.14021,15.90351
126,87,Fr,7.768447,-3.8984050000000003,212.996185861,15.55523,6.48352,6.904850000000001,-9.707540000000002,-2.2136,-11.4252,8.1082,2.18221,-23.215470000000003,15.91336,10.91598,14.06573
125,88,Ra,7.746472,-5.809134,213.00037097,16.629099999999998,5.476979999999999,6.861689999999999,-11.77453,1.71619,-15.00306,7.52679,3.42745,,15.196610000000002,8.54282,15.596729999999999
124,89,Ac,7.715526,-5.965394000000001,213.006607333,17.19016,4.283,7.499350000000001,-13.50793,2.3816900000000003,-14.02743,9.19392,0.93531,,16.03347,10.57595,15.1343
123,90,Th,7.683846,-7.542539,213.013011447,17.93272,3.28988,7.83695,,5.03008,-17.54459,8.06204,2.44618,,15.628680000000001,8.19444,17.323700000000002
122,91,Pa,7.644762,,213.021108697,18.56,2.1175300000000004,8.3939,,5.09636,,10.002049999999999,-0.26285000000000003,,16.46326,10.467229999999999,16.519330000000004
134,80,Hg,7.727,4.713,214.012,7.722,,,11.361,,1.323,4.5600000000000005,,15.648,,,
133,81,Tl,7.745,6.647,214.00694,8.127,,1.711,7.665,,1.597,3.391,8.491,9.844,14.418000000000001,11.953,
132,82,Pb,7.772394,1.017984,213.999803788,8.77655,17.518,2.758,4.28728,-15.138,-3.02245,5.05055,9.25555,4.136970000000001,12.079,10.75928,6.088
131,83,Bi,7.7734950000000005,3.2692930000000002,213.998710938,9.225430000000001,14.228,5.621300000000001,2.17908,-10.273530000000001,-2.61849,4.04044,5.2861899999999995,-0.24205000000000002,17.0589,14.15625,10.52365
130,84,Po,7.785116,-1.090215,213.995201208,10.24319,11.499139999999999,7.83354,-0.15030000000000002,-8.55548,-5.9617700000000005,5.88778,6.52738,-4.56278,14.35871,12.25314,11.6693
129,85,At,7.776366,0.9399109999999999,213.996371601,10.89424,9.83982,8.98723,-2.42112,-5.43717,-5.75512,4.87155,4.01522,-9.823690000000001,17.70046,13.91679,14.1257
128,86,Rn,7.777102,-3.3610349999999998,213.995362566,11.80277,8.528200000000002,9.20848,-4.4124799999999995,-4.9551300000000005,-8.83821,6.69503,5.02912,-15.01463,15.019290000000002,12.19158,13.75923
127,87,Fr,7.75774,-1.051441,213.998970785,13.585370000000001,6.90843,8.58855,-7.40256,-1.66808,-9.37558,5.477180000000001,2.55165,-20.44422,18.41171,12.66075,16.33496
126,88,Ra,7.7491710000000005,-6.35112,214.000099554,15.85093,5.8256000000000006,7.27259,-10.60215,-1.50021,-14.133270000000001,8.32414,3.64339,,14.319510000000001,9.097040000000002,14.49454
125,89,Ac,7.7158370000000005,-4.25103,214.006917762,16.976080000000003,4.61812,7.35214,-13.04166,2.70773,-13.74755,7.78215,1.1906700000000001,,17.353630000000003,10.47589,16.2305
124,90,Th,7.692317,-8.79063,214.011481431,17.55856,3.6840900000000003,7.82718,,3.06036,-17.039060000000003,9.49652,2.7487800000000004,,14.12839,8.356729999999999,15.509260000000001
123,91,Pa,7.647583,,214.020918561,18.25048,2.36972,8.2709,,6.04185,,8.24843,-0.07646,,18.08551,10.4394,17.9297
135,80,Hg,7.705,6.297,215.0174,7.601,,,11.866,,1.672,3.041,,16.75,,,
134,81,Tl,7.73,5.569,215.01064,8.015,,,8.282,,2.023,4.625,8.556000000000001,11.167,12.956,12.018,
133,82,Pb,7.752737000000001,2.7129220000000003,215.00466159,8.596860000000001,17.902,2.541,4.88395,-14.125,-2.5283200000000003,3.5463000000000005,9.411,5.510800000000001,13.26924,10.757,7.231
132,83,Bi,7.761717,2.1710279999999997,215.001749149,9.28168,14.73243,5.2824,2.88508,-12.124,-1.97195,5.2412399999999995,5.47688,1.31126,15.543660000000001,14.04223,8.827
131,84,Po,7.768176,0.714049,214.999418454,10.03076,11.916120000000001,7.52633,0.62685,-7.64791,-5.23319,4.14298,6.62992,-3.07544,15.40073,12.440299999999999,12.65355
130,85,At,7.767858,-0.087195,214.99865189,10.8188,10.60206,8.17846,-1.57382,-7.3439700000000006,-5.00733,5.94724,4.07468,-7.28637,16.108629999999998,13.97779,12.508600000000001
129,86,Rn,7.763814000000001,-1.486625,214.998745498,11.61517,9.09292,8.83909,-3.7023,-3.9874899999999998,-8.28117,4.920140000000001,5.0777,-12.09015,16.12184,12.32372,14.84733
128,87,Fr,7.75326,-2.215674,215.000341456,12.27172,7.68028,9.54041,-5.71255,-3.59107,-7.84599,6.79455,2.65116,-17.54587,16.7249,13.84173,14.592690000000001
127,88,Ra,7.739316,-3.496877,215.00272008,13.954450000000001,6.34818,8.86423,-8.38785,-0.43549000000000004,-11.981430000000001,5.630310000000001,3.79653,-22.38935,16.79739,10.91376,16.83975
126,89,Ac,7.719412999999999,-4.8909709999999995,215.006474132,16.26671,4.994479999999999,7.74595,-11.83332,-0.29964999999999997,-12.73559,8.48456,1.35109,,16.395860000000003,11.093639999999999,15.19298
125,90,Th,7.693025,-6.942353,215.011724805,17.34113,4.00191,7.66465,-14.0015,3.53988,-16.63525,7.84462,2.8112399999999997,,15.4777,8.50834,16.76696
124,91,Pa,7.657096,-7.059147,215.019177728,17.94132,2.86869,8.23681,,4.13111,,9.69289,0.11992,,16.45466,10.61719,16.233040000000003
123,92,U,7.620624,,215.026756035,,1.7749400000000002,8.588000000000001,,6.939229999999999,,,1.8514000000000002,,15.97127,8.19378,18.45868
136,80,Hg,7.69,5.142,216.02132,7.461,,,12.38,,1.877,4.42,,18.077,,,