N,Z,element,be_per_a,beta_decay_energy,atomic_mass,s2n,s2p,qa,q2b,qep,qbn,s1n,s1p,q4b,qda,qpa,qna
38,30,Zn,8.75568,-2.9211,67.924844291,17.25057,18.57875,-5.33309,-3.0283,-13.553379999999999,-11.19936,10.1981,9.97655,-15.81765,6.96199,2.1206199999999997,0.7649900000000001
37,31,Ga,8.701218,-0.107203,67.927980221,19.50497,15.405660000000001,-4.08636,-8.19147,-7.0554499999999996,-12.49908,8.27826,6.49465,-28.295,12.52397,3.69008,5.82407
36,32,Ge,8.688136,-8.08427,67.928095308,21.51439,12.65757,-3.39969,-12.78935,-6.38745,-18.462880000000002,12.391879999999999,7.3887100000000006,,7.45568,0.54277,4.57963
35,33,As,8.557745,-4.705078,67.93677413,23.01208,9.7488,-2.48661,-20.103,0.69556,-20.38555,10.37861,3.5252600000000003,,13.42332,2.44775,9.40939
34,34,Se,8.477047,-15.398,67.941825239,28.672,7.16035,-2.2988600000000003,,1.1798199999999999,-29.47,15.68047,4.89119,,8.54644,-2.38833,7.935180000000001
33,35,Br,8.239,,67.958356,,1.344,-1.684,,10.507,,14.072000000000001,-0.5,,13.58,-0.908,13.792
45,24,Cr,7.924,16.19,68.990789,6.042,,,30.45,,11.729000000000001,1.852,,51.399,2.781,1.8940000000000001,
44,25,Mn,8.147,14.259,68.973408,7.453,38.698,-15.416,25.509,,10.645,4.462,17.26,40.966,4.621,4.814,-13.513
43,26,Fe,8.342,11.25,68.9581,9.562,34.927,-13.235,20.949,-31.519000000000002,4.83,3.614,17.939,29.388,5.141,2.585,-8.663
42,27,Co,8.493865,9.699492000000001,68.946023102,11.10002,31.397000000000002,-11.73673,15.45706,-29.188,5.11334,6.419810000000001,14.081209999999999,19.048650000000002,6.0418,4.65274,-7.88237
41,28,Ni,8.623099,5.757564,68.935610268,12.3786,28.94643,-11.18567,8.439200000000001,-23.78071,-2.48293,4.58615,15.336950000000002,7.12201,6.05393,1.29394,-4.26441
40,29,Cu,8.695204,2.681632,68.929429268,14.559330000000001,24.99238,-8.97593,3.5916,-21.09452,-3.80044,8.2405,9.56137,-2.62404,8.717270000000001,5.13413,-3.68128
39,30,Zn,8.722729,0.9099640000000001,68.926550418,16.680169999999997,19.25311,-5.71708,-1.31718,-12.243,-9.403170000000001,6.48207,10.13978,-11.983139999999999,9.61247,2.70448,3.23484
38,31,Ga,8.724579,-2.2271460000000003,68.925573531,18.59139,16.586240000000004,-4.48906,-6.2156400000000005,-11.04974,-10.42034,10.31313,6.60969,-23.06834,9.263309999999999,4.43541,2.57687
37,32,Ge,8.680963,-3.9884920000000004,68.927964471,20.58507,13.798290000000001,-3.61356,-10.66596,-4.38254,-16.277459999999998,8.193190000000001,7.303640000000001,-34.666000000000004,10.48919,1.48705,7.4449
36,33,As,8.611821,-6.677465000000001,68.932246294,22.66758,10.81106,-2.87958,-16.852700000000002,-3.31515,-16.994049999999998,12.288969999999999,3.42235,,10.256870000000001,3.3589200000000003,6.257890000000001
35,34,Se,8.503707,-10.175236000000002,68.939414847,25.99705,8.354420000000001,-2.38141,-24.0,3.25511,-25.715,10.31658,4.82916,,10.86333,0.45443,10.81873
34,35,Br,8.344902,-13.825000000000001,68.950338413,29.612000000000002,4.25019,-1.74733,,5.34608,,15.539,-0.641,,11.03162,0.265,11.41201
33,36,Kr,8.133000000000001,,68.96518,,0.432,-1.84,,14.466000000000001,,,0.932,,11.067,,14.872
46,24,Cr,7.867,15.02,69.995191,5.823,,,32.03,,12.219,3.971,,54.734,,1.035,
45,25,Mn,8.07,17.01,69.979066,7.263,,-16.314,27.13,,11.458,2.801,18.209,43.476,6.01,4.0440000000000005,-13.203
44,26,Fe,8.302,10.120000000000001,69.960805,9.166,36.288000000000004,-14.215,22.704,-35.219,5.698,5.5520000000000005,19.029,33.055,2.581,1.814,-12.183
43,27,Co,8.436,12.584,69.949941,10.842,32.828,-12.304,16.347,-29.148,5.2780000000000005,4.422,14.889000000000001,22.28,7.5680000000000005,3.845,-7.523000000000001
42,28,Ni,8.604291,3.762513,69.936431303,11.89268,30.30489,-11.57094,10.35087,-27.473,-1.5489600000000001,7.3065299999999995,16.223670000000002,11.34802,3.42761,0.97197,-7.9573
41,29,Cu,8.646865,6.588362,69.932392079,13.551969999999999,25.62365,-8.99276,5.933770000000001,-19.98619,-2.62984,5.3114799999999995,10.28669,1.3655,11.19825,5.63036,-2.0082
40,30,Zn,8.729808,-0.654595,69.925319181,15.700280000000001,20.67886,-5.98337,0.99714,-16.87506,-8.30824,9.21821,11.11749,-7.6348400000000005,6.7131099999999995,2.61883,-0.17565
39,31,Ga,8.709280000000001,1.651736,69.926021917,17.96678,17.92105,-5.07678,-4.56826,-10.4629,-9.880790000000001,7.65365,7.781270000000001,-17.48452,11.80776,3.8342300000000002,4.05577
38,32,Ge,8.7217,-6.22,69.924248706,19.725720000000003,15.132719999999999,-4.08763,-8.63198,-9.433,-15.52102,11.532530000000001,8.523040000000002,-29.462,7.23492,1.18123,2.96484
37,33,As,8.621666,-2.411985,69.930926151,21.589990000000004,11.83382,-3.04313,-12.916260000000001,-2.30304,-15.97849,9.301020000000001,4.5301800000000005,,13.347719999999999,3.1804099999999997,8.18357
36,34,Se,8.576032999999999,-10.504272,69.933515523,23.883080000000003,9.529040000000002,-2.74777,-20.830000000000002,-2.1182,-23.741740000000004,13.5665,6.1066899999999995,,7.67543,-0.47861000000000004,6.37474
35,35,Br,8.414796,-10.325000000000001,69.944792323,28.777,7.10904,-1.82546,,4.39758,-27.062,13.23747,2.2798800000000004,,13.47463,0.01872,10.808010000000001
34,36,Kr,8.256,,69.955877,,1.489,-1.865,,8.045,,16.737000000000002,2.13,,8.402000000000001,-3.446,11.126
46,25,Mn,8.015,15.860000000000001,70.983285,6.942,,-17.345,28.8,,12.869,4.141,18.379,47.141,3.721,4.094,
45,26,Fe,8.227,12.94,70.966259,8.543000000000001,37.427,-15.174,23.977,-34.239,7.1290000000000004,2.991,19.219,35.899,4.0520000000000005,1.814,-10.984
44,27,Co,8.398734000000001,11.036302,70.952366923,10.2334,34.178,-13.335,18.3412,-32.159,6.77262,5.812,15.149000000000001,25.76921,5.37,3.98104,-10.344
43,28,Ni,8.543156000000002,7.304899000000001,70.940518964,11.57021,30.955000000000002,-12.22099,11.92255,-26.185000000000002,-0.50117,4.263680000000001,16.066,14.50027,5.58374,1.38849,-6.2729099999999995
42,29,Cu,8.635022000000001,4.6176509999999995,70.932676832,13.11755,27.00991,-9.81427,7.4280100000000004,-23.37,-1.21771,7.80607,10.78624,5.181970000000001,7.97833,5.61674,-5.134060000000001
41,30,Zn,8.689041,2.8103580000000004,70.92771958,15.05357,21.92807,-6.011010000000001,2.57772,-15.40389,-6.48995,5.83536,11.64138,-4.182270000000001,9.11824,3.10231,1.7814400000000001
40,31,Ga,8.717604,-0.232638,70.924702536,16.95396,18.98086,-5.24454,-2.24604,-14.45173,-7.64858,9.30031,7.86337,-13.63672,8.98952,4.732010000000001,1.0743
39,32,Ge,8.703308999999999,-2.0134000000000003,70.924952284,18.94847,16.06659,-4.4511,-6.75999,-7.63073,-13.635940000000002,7.41594,8.28533,-23.57929,10.13212,2.04355,5.747
38,33,As,8.663932,-4.74659,70.927113758,20.923560000000002,13.143229999999999,-3.4389600000000002,-11.39068,-6.27193,-14.03452,11.62254,4.62019,-35.833,9.918370000000001,3.94975,4.839300000000001
37,34,Se,8.58606,-6.644089,70.932209432,22.85444,10.623790000000001,-2.91319,-16.8193,0.1264,-19.7922,9.287930000000001,6.0936,,10.67647,0.6120700000000001,9.47868
36,35,Br,8.481462,-10.175212,70.939342156,26.38558,7.96819,-2.34011,-24.442,0.55049,-23.473,13.14812,1.8615,,10.64309,2.55108,8.0385
35,36,Kr,8.327129999999999,-14.267,70.950265696,30.035,4.47044,-2.17183,,8.313709999999999,,13.298,2.19056,,10.64307,-2.672,13.50864
34,37,Rb,8.115,,70.965582,,0.379,-1.695,,12.076,,,-1.7510000000000001,,11.085,,12.378
47,25,Mn,7.937,18.53,71.989372,6.543,,,30.3,,13.458,2.4010000000000002,,49.883,5.29,3.544,
46,26,Fe,8.184000000000001,11.769,71.969479,8.063,38.529,-16.055,25.796,,7.868,5.072,20.149,39.715,1.7810000000000001,1.204,-14.204
45,27,Co,8.336,14.027000000000001,71.956844,9.713000000000001,35.278,-14.245000000000001,19.583000000000002,-31.919,7.135,3.9010000000000002,16.059,28.389,7.021,3.694,-9.783
44,28,Ni,8.520211,5.556938000000001,71.941785926,11.15483,32.294000000000004,-13.16406,13.91943,-30.085,0.41375,6.89115,17.145110000000003,18.359840000000002,3.114,0.91715,-9.55
43,29,Cu,8.586525,8.362487,71.935820307,12.94926,27.731,-10.27725,8.805290000000001,-22.70204,-0.52554,5.14319,11.66574,8.4468,10.14167,5.0597,-3.85744
42,30,Zn,8.691805,0.442807,71.926842807,14.72339,23.50957,-7.106590000000001,4.44041,-20.02823,-6.07767,8.88803,12.72333,-0.27731,5.54169,2.4547800000000004,-2.5204400000000002
41,31,Ga,8.687089,3.997607,71.926367434,15.82079,20.18986,-5.44617,-0.3585,-13.16614,-6.7531099999999995,6.52047,8.54849,-9.52655,11.68725,4.69361,2.7943200000000004
40,32,Ge,8.731745000000002,-4.356102,71.922075826,18.16666,17.59911,-5.00372,-4.71772,-12.54609,-12.764120000000002,10.75072,9.73574,-18.64533,7.03505,1.60596,1.4783499999999998
39,33,As,8.660378000000001,-0.361618,71.926752295,20.03056,13.8976,-3.56872,-9.16806,-5.379630000000001,-13.154610000000002,8.40802,5.6122700000000005,-29.900000000000002,13.04288,3.7349200000000002,6.74441
38,34,Se,8.644489,-8.806437,71.927140507,22.08092,11.88425,-3.31431,-13.927610000000001,-5.250649999999999,-19.43708,12.79299,7.26405,,7.1845,0.10805,4.8788800000000005
37,35,Br,8.511312,-5.121168,71.936594607,23.77876,9.29781,-2.59214,-20.732,1.54238,-20.80585,10.63064,3.2042100000000002,,13.57895,2.2370200000000002,9.69683
36,36,Kr,8.429319,-15.611,71.942092407,28.983,6.58863,-2.17605,,1.91696,-29.952,15.684690000000002,4.72713,,8.19585,-2.81705,8.14053
35,37,Rb,8.202,,71.958851,,1.482,-1.964,,10.883000000000001,,14.341000000000001,-0.708,,13.481,-1.031,13.576
47,26,Fe,8.106,14.518,72.975416,7.613,,-16.745,27.208000000000002,,9.228,2.541,20.289,42.694,3.3810000000000002,1.464,-12.774000000000001
46,27,Co,8.295,12.69,72.95983,9.191,36.426,-15.073,21.569,-34.807,8.737,5.29,16.277,32.281,4.722,3.956,-12.272
45,28,Ni,8.457652,8.879285,72.946206683,10.84456,33.257,-13.503,15.48525,-28.967000000000002,1.60353,3.95341,17.198,21.18937,4.97258,1.3860000000000001,-7.952
44,29,Cu,8.568569,6.6059660000000004,72.936674378,12.418940000000001,29.19545,-11.1332,10.7119,-26.077,1.08673,7.27575,12.05035,11.96531,7.129600000000001,5.0904799999999994,-6.711
43,30,Zn,8.648344999999999,4.105932,72.929582582,14.40726,24.76512,-8.039670000000001,5.70412,-18.65631,-5.07643,5.519229999999999,13.09937,2.63398,7.82853,2.24703,-0.73314
42,31,Ga,8.693873,1.5981880000000002,72.925174682,15.70283,21.56615,-6.38804,1.2534100000000001,-17.20531,-5.18475,9.182360000000001,8.84282,-6.05186,8.340250000000001,4.72945,-1.07656
41,32,Ge,8.705049,-0.344776,72.923458956,17.53366,18.546689999999998,-5.30459,-3.07014,-10.44101,-11.139040000000001,6.78294,9.9982,-14.74577,9.55242,2.47667,3.9136100000000003
40,33,As,8.689609,-2.7253600000000002,72.923829089,19.20228,15.391549999999999,-4.04985,-7.30527,-9.65342,-11.15588,10.794270000000001,5.655819999999999,-24.871000000000002,9.66456,4.47318,3.6038
39,34,Se,8.641558000000002,-4.579912,72.926754883,21.223509999999997,12.89883,-3.55164,-11.67564,-2.93046,-17.23696,8.430520000000001,7.286560000000001,-36.277,10.376520000000001,0.97854,7.9808900000000005
38,35,Br,8.568102999999999,-7.095725000000001,72.931671621,23.287689999999998,10.33232,-2.96022,-17.566,-2.7066500000000002,-17.77822,12.65705,3.06827,,10.20984,3.14647,6.340800000000001
37,36,Kr,8.460184,-10.47,72.939289195,26.36718,7.98319,-2.54196,-24.602,4.0274600000000005,-26.293,10.68249,4.77898,,10.66147,-0.26208,11.024540000000002
36,37,Rb,8.306000000000001,-14.131,72.950529,30.164,4.157,-2.247,,5.691,,15.823,-0.5700000000000001,,10.956,-0.117,10.99
35,38,Sr,8.102,,72.9657,,0.201,-1.941,,14.701,,,0.909,,10.821,,14.796000000000001
48,26,Fe,8.061,13.23,73.978969,7.303,,-17.536,28.866,,9.757,4.7620000000000005,,46.166000000000004,1.02,0.844,
47,27,Co,8.229000000000001,15.636000000000001,73.964766,8.763,37.498,-15.745000000000001,23.186,,9.217,3.473,17.209,35.229,6.321,3.473,-11.604000000000001
46,28,Ni,8.43,7.55,73.94798,10.373,34.604,-14.371,17.3,-32.845,2.46,6.4190000000000005,18.327,24.966,2.454,0.778,-11.38
45,29,Cu,8.521562,9.750506999999999,73.939874862,12.36584,30.385,-11.801,12.04341,-25.877,1.5158800000000001,5.09009,13.18702,14.853850000000001,8.93066,4.26408,-5.98988
44,30,Zn,8.642754000000002,2.292905,73.929407262,13.753860000000001,26.10859,-8.96777,7.66573,-22.93753,-4.12869,8.23463,14.058250000000001,6.45649,4.73709,1.81847,-4.70408
43,31,Ga,8.663167,5.372824,73.926945726,15.603959999999999,22.84456,-7.49816,2.8104400000000003,-16.35115,-4.82341,6.421600000000001,9.745190000000001,-2.76146,10.80667,4.14321,0.30791
42,32,Ge,8.725200000000001,-2.562387,73.921177762,16.97918,19.8549,-6.28262,-1.20924,-15.11801,-10.54101,10.19624,11.012080000000001,-11.090610000000002,5.87666,1.58075,-0.44726
41,33,As,8.680001,1.3531469999999999,73.923928598,18.77289,16.849700000000002,-4.37483,-5.571899999999999,-8.44969,-10.70398,7.97862,6.8515,-18.94405,12.43665,3.9105,4.925479999999999
40,34,Se,8.687715,-6.9250490000000005,73.922475935,20.48766,14.20524,-4.07624,-9.88137,-8.204649999999999,-16.637040000000002,12.057129999999999,8.549430000000001,-31.386,6.727399999999999,0.54395,3.3396999999999997
39,35,Br,8.583561,-2.956317,73.929910281,22.369040000000002,11.6363,-3.37119,-13.37214,-1.6243800000000002,-16.80772,9.71199,4.34974,,13.29083,2.72241,8.25135
38,36,Kr,8.533038000000001,-10.415827,73.933084017,24.533900000000003,9.0416,-2.8268600000000004,-21.504,-1.39342,-24.322,13.8514,5.97333,,7.44071,-0.96536,6.461069999999999
37,37,Rb,8.381712,-11.089,73.944265868,29.729,7.43221,-2.91531,,4.4425,-28.037,13.906,2.65323,,12.735370000000001,-0.72475,10.232809999999999
36,38,Sr,8.221,,73.95617,,1.465,-2.152,,8.435,,16.948,2.035,,8.213000000000001,-3.903,11.146
49,26,Fe,7.982,16.01,74.985357,6.883,,,30.39,,11.109,2.121,,48.919000000000004,,1.124,
48,27,Co,8.185,14.38,74.96817,8.374,,-16.504,24.822,,10.736,4.901,17.348,38.815,3.9610000000000003,3.645,-14.103
47,28,Ni,8.366,10.441,74.952732,10.064,35.708,-15.025,18.529,-31.729,3.9050000000000002,3.645,18.499,27.827,4.099,1.034,-9.953
46,29,Cu,8.495094,8.087567,74.941522606,11.62654,31.631,-12.52633,13.99324,-28.94,3.2140500000000003,6.53645,13.304,18.562849999999997,6.34762,4.6187700000000005,-8.625
45,30,Zn,8.592497,5.905672,74.932840246,13.10814,27.0287,-9.5776,9.29806,-21.392,-2.58061,4.8735100000000005,13.84167,9.61057,7.13933,2.08815,-2.68645
44,31,Ga,8.660808000000001,3.3923840000000003,74.926500246,14.907879999999999,24.055080000000004,-8.17837,4.56962,-19.747349999999997,-3.11346,8.48628,9.99684,0.64243,7.8396300000000005,4.5449600000000006,-3.03518
43,32,Ge,8.695609000000001,1.177231,74.922858371,16.702080000000002,20.8415,-6.953100000000001,0.31251999999999996,-13.38922,-9.06823,6.50584,11.09632,-7.53334,8.553180000000001,1.5953800000000002,1.9349200000000002
42,33,As,8.700874,-0.8647140000000001,74.921594562,18.22408,17.9128,-5.319979999999999,-3.92719,-12.27355,-8.89231,10.24546,6.900720000000001,-15.8155,8.974129999999999,4.415760000000001,1.2005000000000001
41,34,Se,8.678913000000001,-3.062472,74.922522871,20.08473,15.4499,-4.6879,-7.84586,-6.03601,-14.95265,8.027600000000001,8.5984,-25.550790000000003,9.49407,0.92437,6.062819999999999
40,35,Br,8.627649,-4.783385,74.92581057,21.602169999999997,12.7322,-3.63883,-11.88831,-5.5359300000000005,-14.84649,11.89017,4.18278,-37.287,9.83118,3.62523,4.76919
39,36,Kr,8.553439000000001,-7.104929,74.930945746,23.91451,10.67418,-3.60203,-17.70493,0.60061,-20.478930000000002,10.0631,6.32444,,10.03466,-0.39783,9.190959999999999
38,37,Rb,8.448275,-10.6,74.938573201,27.28,8.14916,-3.14119,-25.399,0.78049,-24.463,13.374,2.17583,,10.04386,1.5859400000000001,7.48945
37,38,Sr,8.296511,-14.799,74.94995277,30.811,4.644880000000001,-2.7164,,8.42417,,13.863,1.9916600000000002,,10.174,-3.4250000000000003,12.968280000000002
36,39,Y,8.089,,74.96584,,0.316,-2.185,,12.807,,,-1.719,,10.841000000000001,,12.157
49,27,Co,8.116,17.12,75.973687,7.833,,-17.035,26.466,,11.448,2.932,18.16,41.786,5.791,3.254,
48,28,Ni,8.331,9.346,75.955308,9.317,36.618,-15.625,20.673000000000002,-35.279,4.7700000000000005,5.672,19.27,31.583000000000002,1.901,0.652,-13.084
47,29,Cu,8.443527,11.327031000000002,75.945275025,11.11241,32.734,-13.201,15.32065,-28.616,3.51161,4.57596,14.235,21.31539,8.191,3.9962199999999997,-7.9110000000000005
46,30,Zn,8.582272999999999,3.993624,75.933114957,12.68894,28.425,-10.50187,10.909870000000002,-25.562,-1.90975,7.81543,15.12065,12.94893,4.414,1.54848,-6.54846
45,31,Ga,8.624526,6.916249,75.928827625,14.389660000000001,24.868380000000002,-8.938559999999999,5.99474,-19.11427,-2.51099,5.90338,11.026700000000002,3.9924299999999997,10.170879999999999,4.16082,-1.6628
44,32,Ge,8.705236000000001,-0.921512,75.921402726,15.93308,22.034119999999998,-7.492319999999999,2.03906,-17.94295,-8.25001,9.42724,12.03728,-4.19918,5.54753,1.3505,-1.97308
43,33,As,8.682816,2.960573,75.92239201,17.57396,18.8197,-6.128,-2.00231,-11.115770000000001,-8.193209999999999,7.3285,7.723380000000001,-11.812299999999999,11.841870000000002,3.8702,3.0543600000000004
42,34,Se,8.711477,-4.962881,75.919213704,19.18138,16.40745,-5.09097,-6.23824,-10.683959999999999,-14.21626,11.15379,9.50673,-21.00431,6.31891,0.5648500000000001,1.69197
41,35,Br,8.635882,-1.275355,75.924541577,21.14355,14.00696,-4.48419,-9.809989999999999,-4.54384,-14.036760000000001,9.25338,5.4085600000000005,-31.809,12.63494,2.80237,6.31008
40,36,Kr,8.608807,-8.534633,75.925910726,22.82451,11.37845,-3.5704499999999997,-14.76607,-4.1331999999999995,-19.86634,12.76141,7.19568,,6.98525,-0.5021800000000001,4.8600699999999994
39,37,Rb,8.486215,-6.231442,75.935073032,24.70571,9.768870000000001,-3.84225,-21.999,1.3389600000000002,-21.931700000000003,11.331700000000001,3.44443,,12.563559999999999,0.93672,8.8148
38,38,Sr,8.393929,-15.768,75.941762761,29.563000000000002,6.49374,-2.73198,,2.7870100000000004,-30.499000000000002,15.70026,4.31792,,8.37918,-3.302,7.95051
37,39,Y,8.176,,75.95869,,1.1420000000000001,-2.575,,11.450000000000001,,14.731,-0.85,,13.058,-1.666,13.248000000000001
50,27,Co,8.07,15.785,76.97744,7.508,,,27.609,,12.545,4.575,,44.978,3.336,3.44,
49,28,Ni,8.265,11.824,76.960494,8.912,37.738,-16.325,21.990000000000002,,6.105,3.241,19.578,34.413000000000004,3.561,0.885,-11.563
48,29,Cu,8.408,10.165000000000001,76.9478,10.295,33.552,-13.631,17.368000000000002,-31.403000000000002,5.6080000000000005,5.719,14.283,25.292,6.117,4.696,-10.157
47,30,Zn,8.530003,7.203149000000001,76.936887199,12.37292,29.337,-11.10596,12.42367,-24.448,-0.56387,4.5575,15.10218,15.810290000000002,6.39295,2.08106,-4.686
46,31,Ga,8.613389999999999,5.220518,76.9291543,13.6704,26.09894,-9.42982,7.923970000000001,-22.30533,-0.85077,7.7670200000000005,10.978299999999999,7.24246,7.27737,4.62842,-4.33974
45,32,Ge,8.671028,2.703456,76.923549844,15.49853,23.23189,-8.04437,3.3866300000000003,-16.19882,-6.9928,6.07129,12.20519,-1.04342,7.9625200000000005,1.70081,0.19025
44,33,As,8.695978,0.6831699999999999,76.920647564,17.024759999999997,20.02968,-6.6419,-0.6815100000000001,-14.90865,-6.73569,9.69626,7.9924,-9.08583,8.65145,4.37018,-0.22030000000000002
43,34,Se,8.694690000000001,-1.3646800000000001,76.91991415,18.57264,17.32047,-5.72688,-4.4300500000000005,-8.67557,-12.38174,7.41886,9.59708,-16.79605,9.14551,1.12462,4.46935
42,35,Br,8.666806000000001,-3.065366,76.921379194,20.27043,14.77855,-4.70698,-8.40432,-8.2324,-12.29241,11.017059999999999,5.2718300000000005,-26.796,9.64548,3.84245,3.27165
41,36,Kr,8.616836,-5.338951,76.92467,21.98845,12.5779,-4.36697,-12.366010000000001,-2.20646,-17.761680000000002,9.22705,7.16934,-38.13,9.648370000000002,-0.017230000000000002,7.69016
40,37,Rb,8.537339,-7.027055000000001,76.9304016,23.75443,10.30142,-3.60793,-18.392,-1.8303900000000002,-18.654169999999997,12.42273,3.10575,,10.203940000000001,2.3654,6.1040600000000005
39,38,Sr,8.435918,-11.365,76.937945455,27.32738,8.05775,-3.6766,-25.764,3.92131,-27.395,11.62711,4.61333,,10.126059999999999,-1.0233700000000001,10.1748
38,39,Y,8.278,-14.399000000000001,76.950146,30.761,3.798,-2.782,,6.751,,16.03,-0.52,,10.891,-0.747,11.124
37,40,Zr,8.081,,76.965604,,-0.001,-2.5140000000000002,,14.919,,,0.849,,10.491,,14.434000000000001
50,28,Ni,8.225,10.608,77.963618,8.402000000000001,,-16.724,23.594,,6.663,5.1610000000000005,20.164,37.972,1.332,0.624,-14.603