N,Z,element,be_per_a,beta_decay_energy,atomic_mass,s2n,s2p,qa,q2b,qep,qbn,s1n,s1p,q4b,qda,qpa,qna
40,24,Cr,8.3035626,9.3490622,63.963886,8.9300028,36.018,-13.9651963,21.3295739,-35.069,5.1757645000000005,5.532996600000001,19.1888082,33.4590557,2.2839926,1.4011985,-11.623000000000001
39,25,Mn,8.4374175,11.9805117,63.953849369,10.607711799999999,32.3538188,-12.3265545,16.8034014,-28.5378704,4.5752708,4.1732977,14.0997119,22.4353779,8.5743781,4.3715169,-7.165516800000001
38,26,Fe,8.612388800000002,4.8228898000000004,63.940987761,12.2341315,28.694882699999997,-10.4859676,12.129481900000002,-26.0802235,-1.1893171,7.4052409,15.3714624,11.034465899999999,4.265219699999999,1.6366329000000002,-6.8266477000000005
37,27,Co,8.6755223,7.3065921,63.935810176,14.510678500000001,25.8464192,-9.249411700000001,5.6319764999999995,-20.1943521,-2.3508683,6.0122068,11.4457837,-0.9596151,9.7964219,3.9921162,-2.4039098
36,28,Ni,8.7774637,-1.6746156,63.927966228,16.4952302,22.7989194,-8.110775499999999,-1.095016,-18.752375800000003,-9.590483599999999,9.6574604,12.5364519,-12.7835309,5.0361725,0.6632,-2.5321289
35,29,Cu,8.7390736,0.5795996,63.929764001,18.7795111,18.577961,-6.1988966,-6.5915916,-10.8618363,-11.2823072,7.915868000000001,7.2004978,-25.892,12.032828499999999,3.6616660000000003,3.1201626
34,30,Zn,8.7359057,-7.1711912,63.929141776,20.978565500000002,13.835520200000001,-3.9556904,-11.6885149,-7.7800974,-17.5282362,11.861906800000002,7.713120600000001,-39.144,7.4943324,0.8441000000000001,3.8644133000000003
33,31,Ga,8.6116317,-4.5173237,63.936840366,22.9884409,10.6232256,-2.9124803000000004,-19.301000000000002,-0.5419295,-19.9829237,10.357045000000001,3.9083687,,13.046068799999999,2.3801346,8.7976382
32,32,Ge,8.5288243,-14.783,63.941689912,28.318,7.725356700000001,-2.5659487,-27.456,0.608955,-28.887,15.4656,5.0573743,,8.3823259,-2.3167854,7.6798053
31,33,As,8.286,-12.673,63.95756,31.255,2.123,-2.367,,9.726,-30.754,14.103,-0.1,,13.318,-0.878,13.249
30,34,Se,8.075,,63.971165,,-0.7020000000000001,-1.754,,12.773,,18.081,0.648,,8.271,-4.796,12.577
42,23,V,7.981,16.2,64.986999,6.513,39.758,-15.035,28.857,,13.458,3.862,17.919,47.075,4.46,4.953,-13.774000000000001
41,24,Cr,8.218,12.657,64.969608,8.274000000000001,37.028,-14.365,22.908,-34.119,6.6080000000000005,2.741,19.279,36.816,4.141,1.7670000000000001,-10.464
40,25,Mn,8.4006822,10.2505576,64.956019749,10.2229197,33.8051454,-13.215138699999999,18.217861199999998,-31.937,5.9308897,6.0496219,14.6163372,26.296333100000002,5.9217623,4.7493224000000005,-10.107778399999999
39,26,Fe,8.546347,7.9673036,64.945015323,11.7249088,29.6175444,-11.1463156,13.907894700000002,-24.8668947,0.5032219,4.319667900000001,15.5178325,14.694122799999999,6.3799659,2.1701181000000003,-4.7188881
38,27,Co,8.6568848,5.9405911,64.936462071,13.4762885,26.876086800000003,-9.8679915,8.0784719,-23.485136100000002,-0.1574896,7.4640816999999995,11.5046245,3.4722812,7.1612308,4.5569064,-5.0148385
37,28,Ni,8.7362424,2.1378808,64.930084585,15.7555411,24.0681095,-8.6302096,0.7862281000000001,-17.4452156,-7.7726963,6.098080700000001,12.6223258,-8.6475731,7.4365635,1.162658,-0.6013377000000001
36,29,Cu,8.7570967,-1.3516527,64.927789476,17.8264452,19.9900665,-6.7904145,-4.6061908,-14.7602066,-9.330977500000001,9.910577100000001,7.4536145,-20.3266209,8.9600212,4.3468176000000005,-0.19287580000000001
35,30,Zn,8.724266,-3.254538,64.929240534,19.8412316,14.9770752,-4.1149114,-9.4338012,-6.1019618,-15.150516,7.9793248000000006,7.7765774,-32.892,10.3786507,1.7395737999999998,6.4808173
34,31,Ga,8.6621601,-6.1792631,64.932734424,22.253023000000002,11.6555604,-3.0983398,-15.7204301,-4.5220394,-16.4133016,11.8959779,3.9424398000000003,-46.167,10.2667495,3.3746571,5.7764589
33,32,Ge,8.5550584,-9.541167,64.939368136,25.699638500000002,8.8427365,-2.5542332,-23.459,2.2368234000000005,-25.017,10.2340385,4.9343678,,10.7796833,0.37285359999999995,10.3362672
32,33,As,8.3962351,-13.917,64.949611,29.579,4.9678988,-2.2273099000000003,-30.447,4.6067992,-28.149,15.476,-0.0894755,,10.6949716,0.067,10.6963676
31,34,Se,8.17,-16.529,64.964552,32.312,0.676,-1.655,,14.007,,14.231,0.776,,11.191,-3.735,14.767
43,23,V,7.894,18.84,65.993237,6.123,,-16.035,30.451,,13.939,2.261,18.799,50.109,5.891,4.424,-13.723
42,24,Cr,8.168000000000001,11.61,65.973011,7.643,38.238,-15.365,24.928,-37.639,7.756,4.901,20.319,40.866,1.8900000000000001,1.464,-13.634
41,25,Mn,8.3317986,13.3174543,65.960546833,9.903988100000001,35.009,-13.9621446,19.6581488,-31.929000000000002,6.3961914,3.8543662,15.729000000000001,29.507896799999997,7.6003928,4.2919624,-9.3638492
40,26,Fe,8.521724500000001,6.3406944,65.946249958,11.240930800000001,31.0058107,-11.640151099999999,15.9384467,-29.047,1.0460407,6.921262899999999,16.3894735,18.8313821,3.6320007000000003,1.6832692,-8.243144899999999
39,27,Co,8.6059419,9.5977522,65.939442943,12.7587355,27.9974429,-10.3094923,9.849748,-22.730168000000003,0.6459373,5.2946538,12.4796104,7.315187600000001,9.2718179,4.0911432,-3.8750782
38,28,Ni,8.739508599999999,0.2519958,65.929139333,15.0498956,25.614683499999998,-9.553152599999999,2.8929354,-22.0773626,-6.813934100000001,8.9518149,14.110059,-4.3992526,4.4969554,0.7093148,-4.7242619999999995
37,29,Cu,8.731473,2.6409396000000003,65.928868804,16.976507,21.0437895,-7.2588057,-2.5345603999999997,-14.362054800000001,-8.4175826,7.0659299,8.4214637,-14.233205400000001,11.551551700000001,4.1186576,1.239666
36,30,Zn,8.7596335,-5.1755,65.926033639,19.037847000000003,16.378137000000002,-4.5777049,-7.2921879,-11.0624033,-14.3130602,11.0585222,8.9245225,-27.239,7.235996500000001,1.5446947,2.260065
35,31,Ga,8.6693631,-2.1166879,65.931589766,21.0335382,12.8772526,-3.3611014,-11.698645,-3.7490225,-15.316823399999999,9.1375602,5.1006751999999995,-40.154,12.9910962,3.3537555,7.5025417
34,32,Ge,8.6254383,-9.581957000000001,65.933862124,23.4341739,10.1809651,-2.8638681999999998,-19.947,-2.9839873,-22.741302400000002,13.200135399999999,6.2385253,,7.9365929,-0.1958859,6.252790500000001
33,33,As,8.4684034,-10.365,65.944148778,28.635,7.7701992,-2.4629778,-28.455000000000002,3.3434317,-27.077,13.159345400000001,2.8358314,,13.0012263,-0.2398075,10.1684181
32,34,Se,8.3,-18.091,65.955276,30.943,1.923,-1.945,,7.529,-33.241,16.712,2.012,,8.583,-3.2960000000000003,10.907
44,23,V,7.829,17.526,66.998128,5.776,,-17.238,31.837,,15.325000000000001,3.515,,53.578,3.757,4.6000000000000005,
43,24,Cr,8.079,14.311,66.979313,7.102,39.058,-15.835,26.439,,9.409,2.201,20.259,44.473,3.551,1.9140000000000001,-12.143
42,25,Mn,8.281,12.128,66.96395,8.756,36.048,-14.265,21.741,-34.57,8.416,4.901,15.729000000000001,33.739,5.44,4.924,-11.614
41,26,Fe,8.4499359,9.6133678,66.95093,10.63315,31.976,-11.955032,18.0342725,-27.857,2.6288074000000003,3.7118871,16.2469944,22.1719605,5.9697355,2.1446798,-6.4220353999999995
40,27,Co,8.5817422,8.4209047,66.940609625,12.2792142,28.9323814,-10.8596387,11.9977701,-25.8603622,2.6131918,6.9845604,12.542907900000001,11.5573726,6.6069253,4.5118237,-6.6863410000000005
39,28,Ni,8.6957505,3.5768654000000004,66.931569413,14.7595278,27.1027286,-10.5319749,4.137688,-20.9638126,-5.5557171,5.8077129,14.6231182,-1.0689701,6.1533242,0.9138087,-3.126734
38,29,Cu,8.7374597,0.5608226,66.92772949,16.1985124,22.7122903,-7.8929165,-0.4403975,-18.1999835,-6.4916428999999995,9.1325825,8.6022313,-10.7323213,8.51705,4.6435355000000005,-1.8807095999999999
37,30,Zn,8.7341534,-1.0012201,66.927127422,18.110987700000003,17.3325218,-4.792400499999999,-5.206658099999999,-9.163053900000001,-12.2279655,7.0524655,8.9110581,-21.300082,10.0941082,2.4080973,4.8650599
36,31,Ga,8.707533,-4.205438,66.928202276,20.3643056,14.1934209,-3.7242037,-10.291923800000001,-7.909838,-13.343433300000001,11.2267454,5.2688984,-34.35,9.7436755,3.988917,4.1916644
35,32,Ge,8.6330884,-6.0864858,66.932716999,22.3381308,11.3396356,-2.8852049,-16.0934239,-1.0634603999999999,-18.7199524,9.1379954,6.2389604,-47.122,10.694575500000001,1.0231638,8.976702
34,33,As,8.5305685,-10.0069381,66.93925111,25.792812,8.5076878,-2.4650484,-24.058,-0.15247460000000002,-22.998,12.6334666,2.2691624999999997,,10.6017982,2.5923259,7.891996600000001
33,34,Se,8.369534400000001,-14.051,66.949994,29.703,4.6800128999999995,-2.083989,-31.029,7.7377756,-31.082,12.991,1.8441815,,11.067569299999999,-2.184,13.381611000000001
32,35,Br,8.148,-16.978,66.965078,32.182,0.171,-1.454,,12.206,,17.031,-1.842,,11.201,-0.806,12.649000000000001
44,24,Cr,8.026,13.23,67.983156,6.6930000000000005,,-16.635,28.207,,9.819,4.492,21.235,47.774,1.32,1.284,-15.254
43,25,Mn,8.209,14.977,67.968953,8.312,37.198,-15.025,22.722,-34.465,8.717,3.411,16.939,36.647,6.931,4.2540000000000004,-11.163
42,26,Fe,8.418000000000001,7.746,67.952875,9.972,33.335,-12.682,19.567,-31.916,3.354,6.26,17.605,26.11,3.564,1.935,-9.94
41,27,Co,8.520130100000001,11.8212318,67.944559401,11.3766856,29.470140400000002,-11.078466200000001,13.9244524,-25.351,4.028779500000001,4.392125200000001,13.223146000000002,15.4434638,9.1360631,4.4393663,-5.0288442
40,28,Ni,8.6824667,2.1032205,67.931868787,13.6001652,27.9739179,-10.9191863,6.543332,-25.0443778,-4.215587,7.7924523,15.4310101,3.5149765000000004,3.6555257,0.5854381,-6.5995185
39,29,Cu,8.7018913,4.4401115,67.929610887,15.45139,23.736444,-8.1995171,1.5190115000000002,-17.5342306,-5.7579849,6.3188075,9.1133258,-6.6725155,11.1500574,4.4228087,-0.7354354
38,30,Zn,8.755682,-2.9211,67.924844232,17.2505619,18.5788032,-5.3330365,-3.0283555,-13.5534373,-11.199316500000002,10.1980963,9.976572,-15.8177056,6.961941700000001,2.1205781000000004,0.7650442000000001
37,31,Ga,8.701219499999999,-0.1072555,67.927980161,19.504961899999998,15.405707399999999,-4.0865521,-8.191527,-7.055472,-12.483654399999999,8.278216500000001,6.4946493,-28.295,12.523981299999999,3.6900253,5.8240251
36,32,Ge,8.6881371,-8.0842715,67.928095305,21.5143943,12.6575123,-3.3996969,-12.78935,-6.3873938,-18.4628847,12.3763989,7.3886139,-41.352000000000004,7.4557367999999995,0.5427428,4.5796278
35,33,As,8.5577457,-4.7050786,67.936774127,23.0120798,9.748740900000001,-2.4866167,-20.103,0.6956575,-20.3855514,10.378613300000001,3.5097804000000004,,13.423320400000001,2.4477511,9.4093613
34,34,Se,8.477048199999999,-15.398,67.941825236,28.672,7.1603502,-2.2988618,-28.563,1.1952981,-29.731,15.6804728,4.891187700000001,,8.5464419,-2.3883373000000003,7.9351767
33,35,Br,8.239,-13.165000000000001,67.958356,31.364,1.344,-1.684,,10.507,-31.311,14.333,-0.5,,13.58,-0.908,13.792
45,24,Cr,7.939,15.73,68.989662,6.503,,-17.265,29.569,,11.219,2.011,,50.349000000000004,2.825,1.534,
44,25,Mn,8.155,13.839,68.972775,7.922000000000001,38.194,-15.674,25.026,,10.466000000000001,4.511,16.959,40.376,4.621,4.644,-13.414
43,26,Fe,8.345,11.186,68.957918,9.633000000000001,34.507,-13.314,20.78,-30.798000000000002,4.372,3.374,17.568,29.219,5.0920000000000005,2.415,-8.413
42,27,Co,8.4954062,9.5932084,68.945909,11.2063002,31.383,-11.8430192,15.3507734,-28.754,5.0070568,6.8141750000000005,13.778,18.9423721,6.0337751,4.546454300000001,-7.9886531000000005
41,28,Ni,8.6230998,5.757565,68.935610267,12.3786039,28.848182400000002,-11.18567,8.4392504,-23.371000000000002,-2.482931,4.5861516,15.6250364,7.1220183,6.0539345,1.2939403,-4.264407100000001
40,29,Cu,8.695204400000001,2.6816854,68.929429267,14.5593036,24.9923797,-8.975931500000002,3.5915987,-21.3826014,-3.8003846,8.2404961,9.5613696,-2.6240395,8.7172742,5.1341275,-3.6812777000000003
39,30,Zn,8.7227311,0.9099134000000001,68.92655036,16.6801663,19.2531603,-5.717025700000001,-1.3172321,-12.243055,-9.403170000000001,6.48207,10.1398344,-11.983191999999999,9.6124542,2.704438,3.2347892000000003
38,31,Ga,8.724579799999999,-2.2271455000000002,68.925573528,18.5912998,16.5862083,-4.4890583,-6.215638200000001,-11.049747799999999,-10.4203389,10.3130833,6.6096363,-23.0683418,9.2633635,4.4354642,2.5768716
37,32,Ge,8.680964,-3.9884926999999997,68.927964467,20.5695923,13.7982402,-3.6135655000000004,-10.6659599,-4.382490799999999,-16.2774648,8.1931934,7.3035908,-34.96,10.4892889,1.4871097,7.4449567
36,33,As,8.6118214,-6.677467200000001,68.932246289,22.6675854,10.8109676,-2.8796108,-16.8527036,-3.3150981,-16.9940507,12.2889721,3.4223537000000004,,10.272343600000001,3.3589145,6.2579494
35,34,Se,8.5037082,-10.1752364,68.939414845,25.9970563,8.3389384,-2.3814068,-24.294,3.2551135,-25.715,10.3165835,4.8291579,,10.863325000000001,0.4544246,10.8187287
34,35,Br,8.3449026,-14.119,68.95033841,29.872,4.2501878,-1.7473374,,5.3460785,-28.704,15.539,-0.6409999000000001,,11.0316233,0.265,11.412008
33,36,Kr,8.129,,68.965496,32.731,0.138,-1.546,,14.76,,14.585,0.638,,11.1,-3.7070000000000003,15.166
46,24,Cr,7.884,14.81,69.993945,6.093,,,31.25,,11.648,4.082,,53.574,,0.968,
45,25,Mn,8.084,16.44,69.978046,7.673,,-16.575,26.075,,10.678,3.161,18.109,42.526,5.9510000000000005,3.684,-13.06
44,26,Fe,8.308,9.635,69.960397,9.136000000000001,35.778,-14.175,22.324,-34.549,5.424,5.7620000000000005,18.819,32.675,2.741,1.554,-11.974
43,27,Co,8.434198,12.688904899999999,69.9500534,11.025008900000001,32.183,-12.199487,16.4514172,-28.454,5.3823745,4.2108339,14.615,22.3851868,8.083,4.0475075,-7.298
42,28,Ni,8.6042917,3.7625123,69.9364313,11.892682,29.895,-11.570937599999999,10.3508797,-27.304000000000002,-1.5489654000000002,7.3065305,16.1173918,11.348168,3.1395293000000004,0.9719703,-7.8590505
41,29,Cu,8.6468655,6.5883675,69.932392078,13.5519738,25.9117322,-8.9927554,5.9337695,-19.8799041,-2.6297924,5.3114777,10.2866958,1.3575926999999999,11.1982488,5.6303628,-2.008195
40,30,Zn,8.7298086,-0.6545979,69.925319175,15.700229799999999,20.6788678,-5.983370600000001,0.9972882,-16.8750632,-8.3082465,9.2181598,11.1174982,-7.6348484,6.7131019,2.6188607000000004,-0.1756577
39,31,Ga,8.7092808,1.6518861,69.926021914,17.9667319,17.9210493,-5.0767769,-4.576176800000001,-10.4629003,-9.880794,7.6536486,7.7812149,-17.4845232,11.8078113,3.8342812,4.0558056
38,32,Ge,8.7217028,-6.228063000000001,69.924248542,19.725873500000002,15.132824000000001,-4.0877235,-8.6321366,-9.433101,-15.5211729,11.532680200000001,8.523187700000001,-29.462,7.2348251,1.1811749,2.964742
37,33,As,8.621554099999999,-2.4040737,69.930934642,21.582082,11.825861000000002,-3.0351605,-12.9083463,-2.2951246999999997,-15.970577100000002,9.2931099,4.5222702,,13.355632600000002,3.2037999,8.1915849
36,34,Se,8.5760338,-10.5042727,69.933515521,23.8830869,9.5290429,-2.7477748,-20.830000000000002,-2.1181966,-23.741739900000002,13.5665034,6.1066893,,7.675434800000001,-0.4786123,6.3902206
35,35,Br,8.4147964,-10.325000000000001,69.944792321,28.777,7.1090417,-1.8254591,,4.3975834,-27.357,13.2374672,2.2798837,,13.4746289,0.0187224,10.808007400000001
34,36,Kr,8.256,,69.955877,31.617,1.489,-1.865,,8.045,,17.031,2.13,,8.402000000000001,-3.7070000000000003,11.126
46,25,Mn,8.03,15.31,70.982158,7.402,,-17.301000000000002,27.75,,12.199,4.241,18.268,46.091,3.721,3.934,
45,26,Fe,8.235,12.44,70.965722,8.873,36.878,-15.085,23.476,-33.579,6.524,3.111,18.769000000000002,35.399,4.141,1.854,-10.593
44,27,Co,8.3987344,11.0363053,70.952366923,10.1271189,33.588,-13.214,18.3412042,-31.209,6.77262,5.916285,14.769,25.769196400000002,5.54,4.391,-9.803
43,28,Ni,8.5431564,7.3048989,70.940518962,11.5702158,30.785,-12.122735800000001,11.922550600000001,-25.805,-0.501173,4.263685300000001,16.1702433,14.500421300000001,5.690019,1.1004102,-5.863
42,29,Cu,8.6350233,4.617651700000001,70.932676831,13.1175496,26.9036291,-9.814266900000002,7.4279922,-23.4751422,-1.2177045,7.8060719,10.7862372,5.1821224,7.9783285,5.6167431,-5.4221417
41,30,Zn,8.6890417,2.8103404999999997,70.927719578,15.053516,21.9280724,-6.0110138,2.5778707,-15.4038889,-6.489954,5.8353561,11.6413766,-4.1822713,9.1182418,3.102312,1.7814385
40,31,Ga,8.717604999999999,-0.2324698,70.924702554,16.9539431,18.9808479,-5.244489,-2.2458698,-14.4517171,-7.6484084999999995,9.300294599999999,7.8633497,-13.6367002,8.9895867,4.732082900000001,1.0743185000000002
39,32,Ge,8.7033118,-2.0134000000000003,70.92495212,18.948618800000002,16.0666927,-4.4511966,-6.760142,-7.6308799,-13.6440016,7.4159386000000005,8.2854778,-23.579445800000002,10.1319698,2.0434528,5.7468997
38,33,As,8.663935,-4.746742,70.927113594,20.923711500000003,13.143379300000001,-3.4390167000000003,-11.3908304,-6.2720778,-14.034675300000002,11.6306016,4.6201916,-35.603,9.9182243,3.9495972000000004,4.8391997
37,34,Se,8.586060600000001,-6.644088300000001,70.932209431,22.8544366,10.6237828,-2.8977125999999997,-16.8193038,0.1265504,-19.792205900000003,9.2879332,6.1015126,,10.6764737,0.6120678,9.4786863
36,35,Br,8.4814629,-10.1752155,70.939342153,26.3855848,7.9681872,-2.3401101,-24.212,0.5425757999999999,-23.473,13.148117599999999,1.8614979,,10.643094800000002,2.5510776,8.0385031
35,36,Kr,8.327131,-14.037,70.950265695,30.330000000000002,4.4704389,-2.1718328000000002,,8.3137176,,13.298,2.1905551,,10.6430739,-2.672,13.50864
34,37,Rb,8.118,,70.965335,,0.609,-2.186,,11.846,,,-1.5210000000000001,,10.561,-1.8,12.147
47,25,Mn,7.955,18.080000000000002,71.988009,6.862,,,29.131,,12.689,2.621,,48.613,5.181,3.3240000000000003,
46,26,Fe,8.195,11.05,71.968599,8.503,38.188,-15.985000000000001,24.976,,7.049,5.391,19.919,38.896,1.911,0.974,-13.974
45,27,Co,8.338000000000001,13.926,71.956736,9.918000000000001,34.428,-13.805,19.483,-30.969,7.035,4.002,15.659,28.288,7.301,3.763,-9.294
44,28,Ni,8.520211799999998,5.5569381,71.941785924,11.1548361,31.914,-12.754,13.9194264,-29.585,0.4137481,6.8911508,17.145109100000003,18.3598419,3.0097021,1.0234344,-9.381
43,29,Cu,8.586525600000002,8.3624883,71.935820306,12.9492619,27.835985100000002,-10.5653316,8.8052775,-22.7020471,-0.5255383,5.1431899,11.6657418,8.4468019,10.141669,5.0597048000000004,-3.7511566
42,30,Zn,8.6918053,0.4427892,71.926842806,14.7233827,23.5095685,-7.1065881,4.440415600000001,-20.028230100000002,-6.077686,8.8880266,12.7233312,-0.2773058,5.541693,2.4547815,-2.5204364999999997
41,31,Ga,8.6870893,3.9976263,71.926367452,15.8207698,20.1898454,-5.4461568,-0.3584756,-13.166120500000002,-6.7529451,6.5204752,8.5484688,-9.5265334,11.6872712,4.6936776,2.7943393000000003
40,32,Ge,8.7317459,-4.3561019,71.922075824,18.16651,17.5991043,-5.0036716,-4.7177213,-12.5460951,-12.7639714,10.7505714,9.7357546,-18.645328000000003,7.035047,1.6059647000000001,1.4783983
39,33,As,8.6603786,-0.3616194,71.926752291,20.0384711,13.897600200000001,-3.5686697,-9.168057800000001,-5.379652600000001,-13.154611500000001,8.4078695,5.612122500000001,-29.900000000000002,13.043035099999999,3.7349211,6.7444136
38,34,Se,8.6444902,-8.8064384,71.927140506,22.0809253,11.8840947,-3.3143058,-13.9276067,-5.2505031,-19.4370804,12.7929921,7.2639031,,7.176591500000001,0.1080478,4.8788875
37,35,Br,8.5113126,-5.121168300000001,71.936594606,23.7787596,9.305719300000002,-2.5921389,-20.732,1.5425353,-20.8058575,10.630642,3.2042067000000003,,13.5789562,2.2370189999999996,9.696833199999999
36,36,Kr,8.4293193,-15.611,71.942092406,28.983,6.5886246,-2.1760492,,1.9169616,-29.722,15.684689200000001,4.7271266999999995,,8.1958518,-2.8170491,8.1405343
35,37,Rb,8.202,,71.958851,,1.482,-1.964,,10.883000000000001,,14.111,-0.708,,13.481,-1.326,13.576
47,26,Fe,8.121,13.98,72.974246,8.203,,-16.785,26.118000000000002,,8.239,2.811,20.109,41.604,3.341,1.324,-12.703
46,27,Co,8.302,12.139000000000001,72.959238,9.742,35.928,-15.035,21.018,-34.089,8.185,5.7410000000000005,16.009,31.73,4.671,3.7840000000000003,-11.873000000000001
45,28,Ni,8.4576529,8.8792856,72.946206681,10.8445597,32.756,-13.334,15.4852515,-28.147000000000002,1.6035291,3.953409,17.097,21.189373200000002,4.9725781,1.2808594,-7.572
44,29,Cu,8.5685699,6.6059659,72.936674376,12.4189465,29.1954567,-11.026913200000001,10.7118987,-25.976,1.0867318000000001,7.2757566,12.0503476,11.9653117,7.1295978,5.090478699999999,-6.8160793
43,30,Zn,8.6483455,4.1059329,72.92958258,14.4072607,24.765117200000002,-8.039670600000001,5.7041218,-18.6563135,-5.0764449,5.519234099999999,13.099375400000001,2.6339854999999996,7.8285308,2.2470250999999997,-0.7331402