N,Z,element,be_per_a,beta_decay_energy,atomic_mass,s2n,s2p,qa,q2b,qep,qbn,s1n,s1p,q4b,qda,qpa,qna
77,62,Sm,8.2430786,-6.9821777,138.922296631,20.5312099,7.3742022,1.4084747,-14.749,2.3479817,-18.7018716,8.9537747,4.754830200000001,-34.68,12.4034361,3.6537488,12.4654705
76,63,Eu,8.1872187,-7.767,138.929792307,21.394784,5.9031354,2.2393617,-17.268,2.2273475,-17.81,11.719693900000001,1.1892501,,13.3044109,6.2769028,11.4182735
75,64,Gd,8.126,-9.501,138.93813,22.561,4.218,2.801,-19.931,6.577,-22.102,10.043000000000001,3.1710000000000003,,13.225,3.476,14.826
74,65,Tb,8.052,-10.43,138.94833,23.306,2.562,3.593,,6.33,-21.271,12.601,-0.24,,13.794,5.823,13.76
73,66,Dy,7.971,,138.959527,,1.065,4.124,,10.67,,10.841000000000001,1.389,,13.978,3.063,17.036
89,51,Sb,8.103,11.977,139.952345,5.883,,-5.845,19.216,,7.743,2.412,12.369,32.659,11.83,10.623000000000001,-2.914
88,52,Te,8.183356700000001,7.2387734,139.939487057,6.814090600000001,25.435000000000002,-2.622,16.6190122,-24.346,4.0321965,4.233687,13.606,26.9004559,8.993,8.556998400000001,-0.5710000000000001
87,53,I,8.229474,9.380238799999999,139.931715914,7.7689492,23.534,-1.524249,13.443515600000001,-20.845,3.9670454,3.2065769,10.690113499999999,20.7058367,12.800579100000002,10.5615947,2.100572
86,54,Xe,8.2908875,4.063276800000001,139.921645814,9.156853300000002,21.8684088,-0.9860981000000001,10.2814437,-20.070352200000002,-0.35669110000000004,5.4131933,11.8044687,15.0877656,9.7042552,8.2338623,1.963703
85,55,Cs,8.3143227,6.2181669,139.917283707,10.3053462,19.647770700000002,0.0705706,7.2623211,-15.867745500000002,-0.2071386,4.4199679,8.6941231,7.6364888,13.633313000000001,10.197731,4.9529325
84,56,Ba,8.35315,1.0441542,139.910608231,11.1487355,17.873603,0.7363492,4.8063219,-14.91229,-4.1168423,6.4253055,9.8557878,0.9893413000000001,10.329930000000001,8.1419224,4.761911100000001
83,57,La,8.355020099999999,3.7621676,139.909487285,13.9412874,16.002973400000002,-0.39812020000000004,0.3741676,-10.899942,-5.4256361,5.160996600000001,6.6871128,-6.100013,14.660553400000001,8.2733967,7.8801151
82,58,Ce,8.3763045,-3.388,139.905448433,16.6509965,14.3903634,-1.6120637,-3.8169806,-10.4492804,-11.3168927,9.1878037,8.1408172,-12.618281600000001,9.1499881,3.9306935,5.293576
81,59,Pr,8.3465163,-0.4289806,139.9090856,17.6999965,12.750761,-1.0736550999999999,-6.4741805999999995,-4.752817200000001,-10.7406153,7.9288927000000005,5.017456699999999,-17.7002816,13.5904466,6.0965935,8.1010405
80,60,Nd,8.337864,-6.0452,139.90954613,18.3827006,11.269321900000001,-0.1736125,-8.801301,-4.588476200000001,-14.8275361,10.3116347,6.7175652,-22.4749685,9.5824272,3.8086225000000002,7.3079211
79,61,Pm,8.2890958,-2.756101,139.916035918,19.440312600000002,9.6611219,0.7034586,-11.226101000000002,-0.6723652,-13.9031354,8.7823361,3.4840877,-27.7297685,14.5159425,6.2359778,10.6361695
78,62,Sm,8.2638211,-8.47,139.918994714,20.1008091,8.016705700000001,1.3184361,-13.6736675,-0.7279868,-18.1292121,11.1470344,5.2438881,-32.626,10.1692316,3.480968,9.774425800000001
77,63,Eu,8.197733,-5.2036675,139.928087633,21.378906,6.6495176,1.7590614,-16.5036675,3.2261119,-17.426000000000002,9.659212100000001,1.8946874,-37.668,15.222634000000001,5.8697650999999995,12.733315000000001
76,64,Gd,8.1549757,-11.3,139.933674,22.265,4.8624476,2.6037053,-18.952,3.3089801000000003,-21.723,12.222,3.6731975,,10.6782047,3.2276808999999997,11.8557796
75,65,Tb,8.068673200000001,-7.652,139.945805048,23.024,3.3105444000000004,3.336,-21.165,7.6268025,-20.853,10.423,0.14,,15.888,5.595,15.3100279
74,66,Dy,8.008000000000001,-13.513,139.95402,24.042,1.748,3.835,,7.5120000000000005,,13.201,1.989,,11.481,3.001,14.030000000000001
73,67,Ho,7.906000000000001,,139.968526,,0.295,4.157,,11.524000000000001,,,-1.0938998999999998,,16.324,,17.296
90,51,Sb,8.069,11.129,140.957552,5.633,,-6.135,20.387,,8.756,3.221,12.339,34.937,10.481,10.834,
89,52,Te,8.142,9.257,140.945604,6.607,25.938,-2.945,17.528,-23.468,4.865,2.373,13.568,29.063,10.091000000000001,8.844,0.487
88,53,I,8.2022562,8.270643,140.935666081,7.5983381,24.454,-2.2911892,14.5506853,-22.825,4.9884776,4.3917612,10.8481876,23.0031779,10.9892215,10.633384099999999,0.37
87,54,Xe,8.2553647,6.2800423,140.926787181,8.695358700000002,22.5701706,-1.3184623999999998,11.535183300000002,-19.118830600000003,0.7811114,3.2821654,11.8800572,17.2337489,10.984462,8.6466561,3.1450882
86,55,Cs,8.2943554,5.255141,140.920045279,9.918898800000001,20.5843295,-0.5459984,8.4524925,-18.1600995,0.719236,5.4989309,8.779860699999999,11.5371824,11.8780421,10.3589483,3.1489607
85,56,Ba,8.3260774,3.1973515000000003,140.914403653,10.961210600000001,18.665848099999998,0.22600610000000002,5.6985656,-14.0350017,-3.4917507999999997,4.535905,9.9717249,4.4590277,11.6794033,8.0185912,5.8861543
84,57,La,8.343205,2.5012141000000003,140.910971155,11.8500989,16.8066973,1.1910128,3.0846899,-13.1690764,-2.9269347,6.6891023,6.9509095,-2.4069118,12.6948811,10.1960173,5.6035867
83,58,Ce,8.3553956,0.5834758000000001,140.908285991,14.6159525,15.095082099999999,-0.1345727,-1.2395379,-9.4521236,-8.8161487,5.4281486999999995,8.4079694,-9.4970982,12.5021302,5.9464056,8.4771503
82,59,Pr,8.353985199999999,-1.8230137,140.907659604,17.3285173,13.3700947,-1.2985841,-5.4916016,-8.991445200000001,-9.8286052,9.3996246,5.2292776000000005,-16.0888867,11.6540148,6.4153883,6.1452767999999995
81,60,Nd,8.335507400000001,-3.6685879,140.90961669,18.3172262,11.811720600000001,-0.6976704,-8.2575603,-3.4062639,-14.050791499999999,8.005591500000001,6.7942639,-20.967289,11.3479395,3.801402,9.020749
80,61,Pm,8.303940500000001,-4.588972399999999,140.913555081,19.1645396,10.272221700000001,0.253966,-10.597285,-3.1256759,-13.1383045,10.3822035,3.5546565,-25.982089100000003,12.2048049,6.3583052,8.2523369
79,62,Sm,8.265846,-6.0083127,140.918481545,19.6963665,8.494971900000001,1.2250937,-12.7097287,1.0343158000000001,-17.0193321,8.549332099999999,5.0108842000000005,-30.552,12.2778759,3.8444657,11.7296246
78,63,Eu,8.2176853,-6.7014161,140.924931734,20.670231500000003,7.0025606,1.7222955,-15.3848041,0.9974285,-16.214687,11.0110195,1.7586724999999999,-35.561,13.165389300000001,6.4361808,10.6351253
77,64,Gd,8.164609,-8.683388,140.932126,21.735,5.4219438,2.3425086999999998,-17.842,4.9427436,-20.8132709,9.5132709,3.5272564,,12.8846277,3.3895,13.9199439
76,65,Tb,8.0974761,-9.158,140.941448,22.553,3.7207334000000003,3.180145,-20.176000000000002,5.1561316,-19.782,12.1298829,0.0475359,,13.802,5.9830000000000005,12.8552351
75,66,Dy,8.027000000000001,-11.018,140.95128,23.825,2.329,3.406,,9.111,-24.136,10.624,2.189,,13.459,3.082,15.924
74,67,Ho,7.9430000000000005,,140.963108,,0.812,4.178,,8.829,,13.118,-1.1767792,,14.047,5.431,14.882
90,52,Te,8.113,8.253,141.950027,6.325,26.637,-3.464,18.68,,5.306,3.951,14.298,31.293,8.552,8.365,-1.593
89,53,I,8.1652517,10.4266792,141.941166595,7.3393828,24.991,-2.578,15.711587,-22.552,5.3230214,2.9476216,11.422,25.2209809,12.275287,10.2661662,0.894
88,54,Xe,8.2331695,5.2849078,141.929973095,8.3858232,23.4401414,-1.9585697,12.6126085,-21.849,1.1763845,5.1036578,12.591953799999999,19.3032472,9.0873812,8.1053704,0.6218338999999999
87,55,Cs,8.2648777,7.3277007,141.924299514,9.607454200000001,21.4862758,-0.9595625,9.5093939,-17.8768616,1.1466177,4.1085233,9.6062186,13.2718106,13.182712100000002,9.994085,3.6028097
86,56,Ba,8.310971799999999,2.1816932,141.916432904,10.716987999999999,19.433737700000002,-0.29492860000000004,6.690638700000001,-16.933919300000003,-2.9837314000000004,6.181083,10.653877000000001,8.1077984,9.9182883,7.7228866,3.4487314000000002
85,57,La,8.3208263,4.5089455,141.91409076,11.854526900000002,17.552153999999998,0.4381621,3.7624167,-12.835570100000002,-2.6642105000000003,5.165424600000001,7.580429100000001,1.1175856000000002,13.954762,9.7540227,6.3235404
84,58,Ce,8.34707,-0.7465288000000001,141.909250208,12.6013048,15.8429327,1.3039942000000002,1.4171597,-12.0893746,-6.5896802,7.1731561,8.892023100000001,-5.5509661,10.4899707,7.5535404,6.0274242000000005
83,59,Pr,8.3363032,2.1636885,141.91005164,15.242776000000001,14.0522497,0.3021253,-2.6448310999999998,-8.1454944,-7.666165200000001,5.8431515,5.6442803,-12.477437400000001,14.9986671,8.0354296,9.082416199999999
82,60,Nd,8.346031000000002,-4.8085195999999994,141.907728824,17.8354451,12.453770500000001,-0.8091047,-6.9681259,-7.807968799999999,-13.4984416,9.8298537,7.224493000000001,-18.9905333,9.446978600000001,3.7426521,6.6540881
81,61,Pm,8.3066587,-2.1596062000000003,141.912890982,19.0721255,11.033250899999999,-0.437585,-9.8326062,-2.4159734,-13.278894300000001,8.689922000000001,4.2389871,-24.5820137,13.826517599999999,5.7394491,9.3335187
80,62,Sm,8.2859407,-7.673,141.915209415,19.668620200000003,9.3026253,0.6103365000000001,-12.0224074,-2.0793808,-17.1276008,11.1192881,5.7479688,-28.862000000000002,9.9409239,3.383154,8.681402400000001
79,63,Eu,8.226396000000001,-4.3494074000000005,141.923446719,20.4656202,7.6748253,1.1805246,-14.7494074,1.9250311999999998,-16.1560169,9.4546008,2.6639411,-34.058,14.8578229,5.9353547,11.838501
78,64,Gd,8.1902569,-10.4,141.928116,21.3198803,6.0815188,2.1133344000000003,-16.84,1.6854663,-20.4899974,11.8066094,4.3228463,-39.03,10.7372303,3.3025845,11.0671092
77,65,Tb,8.111508,-6.44,141.939280858,22.2198803,4.1515188,2.7652376,-19.309,6.0771537,-19.248,10.0899974,0.6242624,,15.9335628,5.936,14.4849315
76,66,Dy,8.061,-12.869,141.946194,23.432000000000002,2.915,3.115,-22.19,5.816,-23.826,12.808,2.868,,11.074,2.875,13.158
75,67,Ho,7.965,-9.321,141.96001,24.076,1.346,3.9250000000000003,,10.001,,10.957,-0.843,,16.29,5.314,16.526
74,68,Er,7.893,,141.970016,,-0.322,4.5760000000000005,,10.164,,,0.855,,12.098,,15.417
91,52,Te,8.07,10.259,142.956489,6.003,,-3.645,19.673000000000002,,6.2010000000000005,2.052,14.209,33.407000000000004,9.721,8.724,-0.393
90,53,I,8.137,9.413,142.945475,7.006,25.828,-3.165,16.886,-24.469,6.369,4.058,11.529,27.382,10.591000000000001,10.442,-0.753
89,54,Xe,8.1968855,7.4726365,142.93536955,8.1482096,24.111,-2.4227178,13.734323,-20.942,2.2403560000000002,3.0445518000000003,12.688884,21.4034961,10.4345906,8.2673956,1.8109692
88,55,Cs,8.243670700000001,6.2616865,142.927347346,9.3408037,22.326794999999997,-1.6294708,10.4959488,-20.161520499999998,2.0954203000000002,5.2322804,9.734841200000002,15.392681000000001,11.232597100000001,10.174997900000001,1.5771062
87,56,Ba,8.281987800000001,4.2342623,142.920625149,10.3473492,20.317838599999998,-0.7175349,7.6691731,-15.9965278,-1.9845731000000002,4.1662663,10.711620000000002,10.0651051,11.2509529,7.9765882,4.6956584
86,57,La,8.3061271,3.4349108000000004,142.916079482,11.384260000000001,18.2720585,0.104705,4.896732200000001,-14.9458823,-1.7098898999999999,6.2188354,7.6181816,4.7891965,12.2718316,9.9604928,4.5246729
85,58,Ce,8.324676499999999,1.4618214,142.912391953,12.317956700000002,16.451828300000003,0.8826235,2.3959321,-11.0530924,-5.8913295,5.1448007,8.8713992,-2.0892434,12.0342724,7.5697363,7.307929000000001
84,59,Pr,8.329428,0.9341107,142.910822624,13.1963023,14.716298199999999,1.7292653,-0.10753560000000001,-10.3332206,-5.189462300000001,7.353150800000001,5.824275,-8.8268888,13.073665000000002,9.8700825,6.8902619000000005
83,60,Nd,8.3304893,-1.0416463,142.909819815,15.9534267,13.1491948,0.5305151,-4.4851754,-6.7583857,-10.9320926,6.123573,7.5049145,-15.7709995,12.7230302,5.5479718,9.718318799999999
82,61,Pm,8.3177341,-3.4435291,142.910938068,18.5803683,11.524072700000001,-0.5569276,-8.719353100000001,-6.463268200000001,-12.0500525,9.8904463,4.299579700000001,-22.5414716,11.9416628,6.1606376,7.3719652
81,62,Sm,8.288182500000001,-5.275824,142.914634848,19.7258115,9.9035572,0.074879,-11.285824000000002,-0.8560506,-16.2795234,8.6065234,5.6645702,-27.3481858,11.716604,3.5589667,10.3865137
80,63,Eu,8.2458177,-6.01,142.920298678,20.458300200000004,8.2963211,0.8348016,-13.8221185,-0.3887462,-15.353106799999999,11.0036994,2.5483524,-32.194,12.4034557,6.0786897,9.617137699999999
79,64,Gd,8.1983188,-7.8121184999999995,142.926750678,21.1497162,6.8752935,1.7240023000000002,-16.0623618,3.4616476,-19.743106800000003,9.3431068,4.2113524,-37.071,12.405143,3.6186897,12.871036700000001
78,65,Tb,8.1382176,-8.250243300000001,142.935137332,22.0209858,5.0714877,2.5539432000000004,-18.372,3.6007661,-18.371,11.930988300000001,0.7486413000000001,,13.5158454,6.2271407,12.2131552
77,66,Dy,8.0750527,-10.121,142.943994332,22.929000000000002,3.5226605,3.0380000000000003,-21.009,7.5016019,-22.990000000000002,10.121,2.8983981,,13.0827006,3.177384,15.259731
76,67,Ho,7.9990000000000006,-10.887,142.95486,23.826,2.085,3.658,,7.223,-22.189,12.869,-0.783,,14.046000000000001,5.647,14.081
75,68,Er,7.917,,142.966548,,0.356,4.115,,11.67,,11.302,1.199,,13.915000000000001,3.021,17.316
91,53,I,8.098,11.542,143.951336,6.67,26.298000000000002,-3.365,17.941,,6.801,2.612,12.089,29.519000000000002,11.93,10.203,-0.14400000000000002
90,54,Xe,8.1728845,6.3990606,143.938945076,7.785289,24.901,-2.929768,14.894828400000002,-23.631,2.7318992,4.7407372,13.372,23.5596407,8.641474899999999,7.9184196,-0.556
89,55,Cs,8.2118894,8.4957679,143.932075402,8.8994418,23.0463348,-2.0900551999999997,11.5782978,-19.771,2.5945252,3.6671613,10.3574508,17.4792263,12.6690936,9.790002000000001,2.3017060000000003
88,56,Ba,8.2654549,3.08253,143.922954821,10.067508900000002,21.1154234,-1.2055842,8.6648123,-18.8532186,-1.6669804,5.9012426,11.380582200000001,11.980898400000001,9.4582335,7.5742765,2.0765812
87,57,La,8.2814283,5.5822823,143.919645589,10.9683457,18.9130456,-0.22483740000000002,5.9009284,-14.4631122,-1.3145995000000001,4.7495103,8.2014256,6.5664567,13.703404200000001,9.746887500000001,5.2740935
86,58,Ce,8.314761200000001,0.31864620000000005,143.913652763,12.0416825,17.1676272,0.4110472,3.3160862000000004,-13.7837079,-5.4350605,6.8968818,9.549445599999999,1.5336840999999999,10.3028151,7.3619568,4.9469522
85,59,Pr,8.311541100000001,2.99744,143.913310682,13.1068574,15.3045802,1.1365553,0.6655283,-9.8680918,-4.8195959,5.7537066,6.433180999999999,-5.1314137,14.4931145,9.5445247,7.8256575999999995
84,60,Nd,8.3269237,-2.3319117,143.910092798,13.940608899999999,13.7930747,1.9012829,-1.7824021,-9.430620999999999,-8.8586823,7.8170359,7.9687996000000005,-11.988517,10.7491457,7.1305605,7.329431700000001
83,61,Pm,8.3052969,0.5495096,143.912596208,16.4172168,12.2076917,0.8451947000000001,-5.7969419,-5.6368879,-9.9702996,6.5267705,4.702777200000001,-19.0479288,15.244746,7.6394585,10.2448192
82,62,Sm,8.30368,-6.346451500000001,143.912006285,19.1263327,10.593512800000001,-0.13329560000000001,-10.206114900000001,-5.2522868,-15.7956333,10.5198093,6.293933200000001,-25.395535,9.886716700000001,3.4213609000000003,7.8722959
81,63,Eu,8.2541744,-3.8596633000000002,143.918819481,20.4528811,9.0555809,0.167956,-13.250986900000001,0.0525184,-15.4591817,9.449181699999999,3.3910107,-31.009653999999998,14.073562,5.1788401,10.5501595
80,64,Gd,8.2219382,-9.3913235,143.922963,20.9426252,7.3555238,1.2715182999999999,-15.1894201,0.46865260000000003,-19.4116369,11.599518400000001,4.8071714000000005,-35.152,10.2602254,3.0301907999999997,9.8208505
79,65,Tb,8.1512877,-5.7980965,143.933045,21.951301700000002,5.637200300000001,2.1928419,-17.7586671,4.584152100000001,-18.2705566,10.0203134,1.4258479,-40.209,15.3021415,5.7200983,13.2038614
78,66,Dy,8.1055902,-11.960570599999999,143.939269512,22.593,4.1885112,2.7872709,-19.962,4.3722487,-22.594,12.472460100000001,3.4398698,,10.700237999999999,2.8348068,12.300541800000001
77,67,Ho,8.0170977,-8.002,143.952109712,23.502,2.6279406,3.4478415,-22.45,8.5207008,-21.52,10.633000000000001,-0.27045749999999996,,16.221,5.6370000000000005,15.5777244
76,68,Er,7.956,-14.448,143.9607,24.82,1.066,3.797,,8.272,,13.519,1.849,,11.354000000000001,2.621,14.421000000000001
75,69,Tm,7.8500000000000005,,143.976211,,-0.513,4.7330000000000005,,12.599,,,-1.7119999000000001,,16.481,,17.851
92,53,I,8.069,10.363,144.955845,6.4830000000000005,,-4.015,18.924,,7.671,3.871,12.199,31.705000000000002,10.111,10.283,-1.874
91,54,Xe,8.1350877,8.5610867,144.944719631,7.4330910999999995,25.541,-3.249,16.0228458,-22.562,3.7067067000000002,2.6923538,13.452,25.5737215,10.007,8.1736873,0.7030000000000001
90,55,Cs,8.1887342,7.4617591,144.935528927,8.5215413,23.843,-2.552674,12.7809016,-22.013,3.6413878,4.85438,10.4710936,19.571566500000003,10.859265299999999,10.039279800000001,0.3949476
89,56,Ba,8.2347991,5.3191425,144.9275184,9.721613900000001,21.8912429,-1.7437901,9.5508756,-17.9328527,-0.7378413,3.8203712999999997,11.533792100000001,13.9158214,10.8701427,7.8624285,3.3598676999999997
88,57,La,8.266087299999999,4.2317331000000005,144.921808065,10.8064941,19.737749,-0.7828903,6.7906649,-16.8529346,-0.4747015,6.0569838,8.357166800000002,8.432180700000002,11.8126867,9.8709867,3.325633
87,58,Ce,8.2898762,2.5589318,144.917265113,11.6033164,17.7077955,0.2405176,4.3649458,-12.588899900000001,-4.3877885,4.7064346,9.5063699,3.5843487,11.8152159,7.8209467,6.4216006
86,59,Pr,8.3021285,1.806014,144.914517987,12.7004269,16.032465000000002,0.8789374000000001,1.6415157999999999,-12.065301700000001,-3.9492802,6.9467202,6.4830194,-1.6344663000000001,12.691194900000001,9.7709605,6.0443620000000005
85,60,Nd,8.3091883,-0.1644982,144.912579151,13.572330200000001,14.403568300000002,1.5741374000000001,-0.7805970999999999,-8.289033400000001,-8.087206,5.7552943,7.9703873000000005,-8.5053787,12.3470023,7.2184177,8.7472935
84,61,Pm,8.3026583,-0.6160990000000001,144.912755748,14.4494783,12.777248700000001,2.3221114,-3.2759821000000002,-7.805889100000001,-7.3731982,7.9227078,4.8084491,-14.8678134,13.4456111,9.5466044,8.1652629
83,62,Sm,8.2930139,-2.6598832000000003,144.913417157,17.2769085,11.2270391,1.1151967,-7.7247816,-4.1923501,-13.1035508,6.7570992,6.524261900000001,-22.4087998,13.0200638,5.3541837,10.945050300000002
82,63,Eu,8.2692744,-5.064898400000001,144.916272659,19.8928493,9.6088022,0.1064919,-11.5918313,-3.8643787000000005,-14.3033309,10.443667600000001,3.3148690000000003,-28.871411000000002,12.2364178,5.8544607,8.7964139
81,64,Gd,8.228948500000001,-6.5269329,144.921710051,20.837951,7.9874329,0.5824179,-14.6840182,1.7500293,-18.629756099999998,9.2384326,4.5964222,-33.687,12.0254922,3.246359,11.701706
80,65,Tb,8.1785397,-8.1570853,144.928717001,22.1231365,6.736324,1.1010382,-17.2795797,1.9305107000000001,-17.9009197,12.102823200000001,1.9291525999999999,-38.817,12.5424251,5.423884500000001,10.555639
79,66,Dy,8.1168884,-9.1224943,144.937473992,22.2162945,4.5892387,2.5567073999999996,-19.002,6.2279327,-21.704404999999998,9.7438344,3.1633909,,12.8873919,3.1809697999999997,14.363316800000002
78,67,Ho,8.0485792,-9.88,144.947267392,23.215,3.2788629,2.9958137000000002,-21.537,5.9591035,-20.584,12.581910599999999,-0.1610069,,13.759643,5.863,13.0858112
77,68,Er,7.9750000000000005,-11.657,144.957874,24.222,1.649,3.717,,10.041,-25.152,10.704,1.92,,13.518,2.874,16.526
76,69,Tm,7.889,,144.970389,,0.113,4.357,,9.738,,13.495000000000001,-1.7360999,,14.289,5.211,15.314
92,54,Xe,8.1104154,7.3554298000000005,145.948518245,7.2252852,26.313,-3.83,16.9113181,-25.234,4.0281553,4.532931400000001,14.114,27.670918,8.086,7.699,-1.778
91,55,Cs,8.1554365,9.5558882,145.940621867,8.1816545,24.558,-2.9323269,13.910793400000001,-21.469,4.1344845999999995,3.3272745,11.1060142,21.363106000000002,12.2727281,9.7565571,1.1260000000000001
90,56,Ba,8.2155293,4.3549052,145.9303632,9.241774900000001,22.5719093,-2.0615359,10.7595999,-20.6619025,-0.10226110000000001,5.4214036,12.1008157,16.0596477,9.115900400000001,7.6733053,0.9830158
89,57,La,8.2399988,6.4046947,145.925688017,10.5141501,20.527754,-1.1315333,7.4523126,-16.4557209,-0.2254332,4.4571663,8.9939619,10.233186600000002,13.256763000000001,9.580086600000001,4.1007470999999995
88,58,Ce,8.2785081,1.0476178,145.918812294,11.336562599999999,18.436680799999998,-0.2085274,5.300047800000001,-15.3986566,-4.0711962,6.630128,10.079514,5.3704918,9.9345983,7.4096542,3.9577389