N,Z,element,be_per_a,beta_decay_energy,atomic_mass,s2n,s2p,qa,q2b,qep,qbn,s1n,s1p,q4b,qda,qpa,qna
92,80,Hg,7.7136064,,171.998860581,22.619,-0.6598989000000001,7.5238007,,9.116236500000001,,12.472,0.788029,,13.353,5.591,17.049
107,66,Dy,8.026,5.61,172.953043,9.873,22.108,-2.275,9.914,-18.059,-0.328,4.0520000000000005,11.339,13.811,10.741,7.8340000000000005,2.7560000000000002
106,67,Ho,8.054,4.304,172.94702,10.975,20.159,-1.295,6.906000000000001,-16.949,-0.9390000000000001,5.938,8.88,7.53,11.370000000000001,9.223,3.0060000000000002
105,68,Er,8.074,2.602,172.9424,12.079,18.222,-0.483,3.8970000000000002,-13.183,-4.352,5.243,9.459,1.758,11.575000000000001,7.448,5.702
104,69,Tm,8.084463300000001,1.2951669,172.93960663,13.1884322,16.3161872,0.1150265,0.6249468,-12.061,-5.071929,6.9538314,7.062460000000001,-3.859524,12.172562000000001,8.7155017,5.6278486999999995
103,70,Yb,8.0874276,-0.6702201,172.938216211,14.387052299999999,14.4113541,0.9450130000000001,-2.1394445,-8.357627,-8.8864764,6.367095900000001,7.4666514,-8.8238462,12.3698441,7.108135000000001,8.2026817
102,71,Lu,8.079031200000001,-1.4692244,172.938935722,15.1951847,12.248685,1.9687241,-4.4844708,-6.7964312,-8.5501006,8.2162563,4.9145288,-13.3271443,13.136611,8.7469699,8.5607021
101,72,Hf,8.0660164,-3.0152464,172.940513,16.1230747,10.682913699999999,2.5388216000000003,-6.6844017000000004,-3.4453044,-12.1531252,7.0808762,5.9646849,-17.973539499999998,13.1274828,6.7584993,10.998541300000001
100,73,Ta,8.044065,-3.6691553,172.94375,16.8189008,9.146019899999999,3.2610680000000003,-8.842673500000002,-2.9494385000000003,-11.370670200000001,9.137878800000001,3.2832828,-22.128087500000003,13.7456148,8.7213723,10.556092699999999
99,74,W,8.0183337,-5.1735182,172.947689,17.7839287,7.8739791,3.5645911999999997,-11.2891378,0.3858725,-15.231867399999999,7.7015149,4.686376500000001,-26.7906296,13.7036976,6.2743373,13.1728745
98,75,Re,7.9839068,-6.1156196000000005,172.953243,18.446221,6.4115333,4.311649500000001,-13.285414000000001,0.4871417,-14.3815471,10.0583492,1.7456497,-30.7218528,14.2430327,8.6009899,12.230202499999999
97,76,Os,7.9440341,-7.1697944,172.959808387,19.283648399999997,4.9300969,5.0547005,-15.5014918,4.3699699,-18.1301949,8.2659275,3.1603826,-34.777,14.5228417,6.3298012,15.4989565
96,77,Ir,7.898068,-8.3316974,172.967505477,19.9990618,3.596113,5.7158754,-17.4364388,4.0094118,-17.2331039,10.960400400000001,0.31378609999999996,,14.739589200000001,8.521291,14.2819426
95,78,Pt,7.8453856,-9.104741500000001,172.976449922,20.6128258,2.2174625999999997,6.3613102,-19.276,8.0179112,-20.6900658,8.9014066,1.8463561,,15.1860787,6.11,17.6353354
94,79,Au,7.788234800000001,-10.171,172.986224263,21.4123498,0.997929,6.8364832,,7.2583854,-19.8419738,11.5853243,-0.9856819000000001,,15.345358899999999,8.3312405,15.997
93,80,Hg,7.7250000000000005,,172.997143,22.143,-0.228,7.3780245,,11.157,,9.671,0.632,,15.612,5.9063245,19.285
108,66,Dy,8.011000000000001,4.739,173.955845,9.513,22.738,-2.705,10.819,,0.149,5.461,11.909,15.814,9.271,7.5040000000000004,0.726
107,67,Ho,8.034,6.08,173.950757,10.529,20.757,-1.585,7.995,-16.649,-0.28700000000000003,4.59,9.418000000000001,9.701,12.601,9.005,3.547
106,68,Er,8.064,1.915,173.94423,11.609,18.768,-0.664,4.995,-15.498000000000001,-3.765,6.367,9.888,3.895,10.245000000000001,7.432,3.7070000000000003
105,69,Tm,8.070643200000001,3.08,173.942174061,12.6336029,16.959,-0.051922800000000005,1.7057713,-11.803,-4.384604500000001,5.6797715,7.4990000000000006,-2.1237492000000002,13.3288647,8.7173568,6.2997038000000005
104,70,Yb,8.0838481,-1.3742287,173.938867545,13.8317004,15.039884500000001,0.7380772,-1.0999376,-10.579,-8.1348246,7.4646045,7.977424500000001,-6.7174272,11.1398403,7.129805800000001,6.419703800000001
103,71,Lu,8.071454,0.27429109999999995,173.94034284,14.976852300000001,12.7746802,1.8001061999999999,-3.8295205,-6.603195800000001,-8.2298203,6.7605959,5.3080288,-11.897191000000001,14.3959714,8.6005813,9.2863815
102,72,Hf,8.0685341,-4.1038117000000005,173.940048377,15.5849877,11.1670689,2.4944298,-5.6174896,-5.58232,-11.519357900000001,8.5041115,6.2525401,-15.849199800000001,11.6022998,6.847937600000001,9.108637199999999
101,73,Ta,8.0404528,-1.5136779,173.944454,16.553425,9.5826377,3.1405465,-8.0676704,-2.1487284,-11.0847015,7.4155462,3.6179528000000003,-20.954834599999998,15.3722671,8.5546348,11.7340963
100,74,W,8.0272572,-6.5539925000000006,173.946079,17.2725385,8.402804099999999,3.6018510000000004,-10.2317102,-2.1042749,-14.7445418,9.5710236,5.119521300000001,-24.909486,11.813696,6.357240200000001,10.8506597
99,75,Re,7.9850944,-3.6777177,173.953115,18.2488985,6.9210606,4.0396532,-12.887164199999999,1.4344712,-14.306168900000001,8.1905493,2.2346841,-29.615000000000002,16.1348972,8.2770496,13.6935797
98,76,Os,7.959461800000001,-9.2094466,173.957063192,18.8943788,5.4761343,4.8705053,-14.6777758,1.4430336,-17.7982457,10.628451199999999,3.7304847,-33.354366199999994,12.282262300000001,6.1189567,12.7371142
97,77,Ir,7.9020377,-5.468329300000001,173.966949939,19.5491995,3.7970403000000004,5.693143500000001,-16.728,5.478961900000001,-16.920496500000002,8.588799100000001,0.6366577,,17.1685109,8.3753563,16.110750200000002
96,78,Pt,7.8661143000000004,-11.259,173.972820431,20.3535738,2.6519090000000003,6.1831682,-18.676590400000002,4.8316716,-20.5569087,11.4521672,2.3381229,,12.7725729,5.9584777,14.6260326
95,79,Au,7.797000000000001,-7.417,173.984908,20.883,1.2570000000000001,6.6992937,,8.921,-19.468,9.298,-0.59,,17.759,8.272,18.0
94,80,Hg,7.7497851,,173.992870575,21.7222921,0.1122894,7.2332692,,8.0067702,,12.051,1.0979713,,13.3878006,5.7853413,16.4719538
108,67,Ho,8.019,5.352,174.953516,10.092,21.368000000000002,-1.955,9.011000000000001,-18.619,0.579,5.501,9.458,11.866,11.151,9.324,2.037
107,68,Er,8.045,3.6590000000000003,174.94777,11.141,19.490000000000002,-1.067,6.0440000000000005,-14.811,-2.859,4.774,10.071,5.83,11.409,7.696,4.7540000000000004
106,69,Tm,8.061767300000001,2.3850000000000002,174.94384231,12.1971253,17.538,-0.2176501,2.8551219000000003,-13.73,-3.4373539,6.5173539,7.65,0.0980962,12.054,9.036076999999999,4.82
105,70,Yb,8.0709253,0.4701219,174.941281907,13.2869584,15.619,0.5973499000000001,-0.2137935,-10.035,-7.1965826,5.8223539,8.1200069,-5.0627562,12.2713178,7.5420526,7.4334240000000005
104,71,Lu,8.0691412,-0.6839154,174.940777211,14.4273004,13.4875533,1.619677,-2.7570257000000002,-8.5901288,-7.392413400000001,7.6667045,5.5101288,-9.8773666,13.096362800000001,8.9538331,7.8542777
103,72,Hf,8.0607625,-2.0731102999999997,174.941511424,15.2126094,11.5084709,2.4001392,-4.8489627,-4.826213399999999,-10.8123096,6.708498,6.2004421,-14.376402500000001,13.1100581,7.118368,10.4200955
102,73,Ta,8.0444456,-2.7758524,174.943737,16.1547455,10.1055807,2.9948969,-7.1203409,-4.1273318,-10.2528773,8.739199300000001,3.8530407,-19.0141418,13.713944,8.857634000000001,9.973825300000001
101,74,W,8.024113,-4.344488500000001,174.946717,17.0480484,8.7989527,3.3736349,-9.5274398,-1.0771882000000002,-14.0310173,7.477024800000001,5.1809999,-23.9241159,13.474549999999999,6.5612374,12.415833500000002
100,75,Re,7.9948168,-5.1829513,174.951381,17.8770781,7.469710600000001,4.0070509,-11.8938009,-0.8365114,-13.3642465,9.6865288,2.3501893000000003,-27.8846254,14.149883299999999,8.672934600000001,11.6880729
99,76,Os,7.9607294,-6.7108495999999995,174.956945126,18.8097464,5.9559146,4.5558190000000005,-14.3966761,2.8327620000000002,-17.3907417,8.1812952,3.7212305000000003,-32.1359177,14.1593163,6.3255333,14.638232900000002
98,77,Ir,7.9179112,-7.6858265,174.964149519,19.268691200000003,4.4185832000000005,5.430858100000001,-15.9908245,2.9896191,-16.1482214,10.6798921,0.6880986,,14.7545463,8.713185,13.818729900000001
97,78,Pt,7.869521600000001,-8.304998,174.972400593,19.9145621,2.8483763,6.163637700000001,-17.739241600000003,6.9977279,-19.722,8.4623949,2.2117186,,15.2705784,6.5347442000000004,17.181358499999998
96,79,Au,7.8175939,-9.4342436,174.981316375,20.7143056,1.7131727,6.583427800000001,,6.0932794,-18.8339873,11.417,-0.6249501000000001,,15.243879100000001,8.5670387,15.622089200000001
95,80,Hg,7.7592134,,174.991444451,21.451,0.6106265,7.0722101,,10.0591937,,9.399743700000002,1.2,,15.5733812,6.2126231,18.7836293
109,67,Ho,7.997,7.2410000000000005,175.957713,9.663,21.998,-2.125,9.981,,1.191,4.162,9.949,13.992,12.451,9.214,2.766
108,68,Er,8.034,2.741,175.94994,10.824,20.078,-1.296,6.861,-17.19,-2.391,6.05,10.620000000000001,7.946,9.950000000000001,7.5840000000000005,2.7560000000000002
107,69,Tm,8.0451214,4.12,175.946997707,11.6494379,18.080000000000002,-0.313,4.0110105,-13.361,-2.7470841,5.1320841,8.008000000000001,1.9940568,13.289,9.147,5.626
106,70,Yb,8.0640853,-0.1089895,175.942574706,12.689437900000001,16.12,0.5663400000000001,1.0851051999999999,-12.128,-6.3969621,6.8670841000000005,8.4697371,-2.8497141000000004,11.0840052,7.6288,5.809
105,71,Lu,8.0590209,1.1940947000000002,175.942691711,13.9546772,14.0957545,1.566305,-2.0169537,-8.360747600000002,-6.9718881,6.2879727,5.9757476,-8.319442800000001,14.2729947,9.0329564,8.5201364
104,72,Hf,8.0613604,-3.2110484,175.941409797,14.874480700000001,12.2098492,2.2541128,-3.9348193,-7.1698423,-10.2390931,8.1659828,6.6997204,-12.4452433,11.7046713,7.1686416,8.621208699999999
103,73,Ta,8.0386706,-0.7237709,175.944857,15.767244000000002,10.373029500000001,2.9457807,-6.3024891,-3.4886719,-9.8038971,7.028044700000001,4.1725874,-17.483456699999998,15.1900108,8.9104656,11.162037
102,74,W,8.0301131,-5.5787182,175.945634,16.557151,9.3749674,3.3357073,-8.510424,-3.4488164,-13.424614700000001,9.0801262,5.5219268,-21.707689900000002,11.809970100000001,6.6189901,10.416583500000002
101,75,Re,7.9939707,-2.9317058,175.951623,17.5324253,7.900060900000001,3.8421765000000003,-11.1809676,0.056791400000000006,-13.0288478,7.8458965,2.7190610000000004,-26.5419234,15.8750103,8.528553,12.9800553
100,76,Os,7.9728680999999995,-8.249261800000001,175.954770315,18.2784372,6.482033,4.5410909,-13.197265900000001,0.2126448,-16.8079916,10.097142,4.1318437,-30.3465458,12.2527236,6.2867405,12.2426058
99,77,Ir,7.9215522,-4.9480041,175.963626261,19.2386219,4.786763700000001,5.2600002,-15.3609557,4.1174181,-16.2445563,8.5587298,1.0655332000000002,-34.466650800000004,16.8242678,8.420382799999999,15.318349399999999
98,78,Pt,7.8889934,-10.412951600000001,175.968938162,19.7589471,3.5164773,5.8848064,-17.149279900000003,3.8824709,-19.601550200000002,11.2965522,2.8283787000000005,,12.5628254,6.1985925,14.150733899999999
97,79,Au,7.825383700000001,-6.7363283,175.980116925,20.605,2.3129722000000004,6.4334907,-19.105695100000002,7.5845729,-18.622842100000003,9.1885985,0.10125360000000001,,17.5074477,8.2798467,17.3938911
96,80,Hg,7.782664,-12.3693668,175.98734867,21.286257600000003,1.0449731999999998,6.8971154,,6.6350747000000005,,11.8865139,1.6699233,,12.984,5.9114335,15.798522000000002
95,81,Tl,7.7079383,,176.000627731,,-0.065,7.4778231,,10.6994435,,,-1.2651999,,17.9365524,8.11,19.0631473
109,68,Er,8.013,4.711,176.95399,10.349,20.706,-1.543,8.128,-16.537,-1.558,4.299,10.757,10.023,11.152000000000001,7.876,3.918
108,69,Tm,8.035,3.4170000000000003,176.948932,11.402000000000001,18.848,-0.644,4.814,-15.468,-2.15,6.2700000000000005,8.228,4.1450000000000005,11.793000000000001,9.244,3.946
107,70,Yb,8.0499741,1.3974983,176.945263846,12.433484,16.912,0.243,1.8943409,-11.645,-5.6753894,5.5664,8.904053,-1.2846735,12.0349591,7.7421715,6.609
106,71,Lu,8.0534495,0.49684249999999996,176.94376357,13.3608604,14.6512884,1.4472487,-0.6691575000000001,-10.3015513,-5.8787931,7.0728878,6.181551300000001,-6.1147276,13.022460800000001,9.4246731,7.1270201
105,72,Hf,8.0518365,-1.166,176.943230187,14.5416183,12.7631309,2.2455731,-3.1790144000000002,-6.6783938,-9.586684,6.3756356,6.7873833,-10.924297300000001,12.9957402,7.553601899999999,9.710177600000002
104,73,Ta,8.040828900000001,-2.0130144,176.94448194,15.4487287,11.127008900000002,2.741353,-5.445570200000001,-5.621383300000001,-9.144454900000001,8.420684,4.4272886,-15.667320700000001,13.4778248,8.9938931,9.5019489
103,74,W,8.0250359,-3.4325558000000003,176.946643,16.2115667,9.79791,3.285143,-7.7452829,-2.4142742,-12.710158700000001,7.1314405,5.6253226000000005,-20.331294300000003,13.4177289,6.9030958,11.7892545
102,75,Re,8.0012229,-4.3127271,176.950328,17.1234994,8.4384645,3.7024523,-10.2217505,-2.1927668,-12.2093087,9.2776029,2.9165377,-24.7234389,14.0744322,8.8219736,11.117998600000002
101,76,Os,7.9724371000000005,-5.909023400000001,176.954957902,17.993723600000003,6.9015898,4.3460242,-12.5860114,1.3961894,-16.1458434,7.8965816,4.1825288,-29.180625199999998,14.0426709,6.5807082,13.9170478
100,77,Ir,7.9346328,-6.676988000000001,176.9613015,18.7955498,5.3370549,5.081529400000001,-14.5016883,1.7264946,-15.1848241,10.23682,1.2052112,-32.7073216,14.768743,8.812014,13.2720787
99,78,Pt,7.8924896,-7.824700300000001,176.968469541,19.8043883,3.8430182,5.642897700000001,-16.5946138,5.4717768,-18.9207878,8.5078361,2.777485,,14.7348813,6.2795554000000005,16.271349
98,79,Au,7.8438623,-8.769913500000001,176.976869701,20.284686,2.7291675,6.2978037,-18.205633300000002,5.0472152999999995,-17.832415700000002,11.0960874,-0.09921120000000001,,14.8737552,8.6359265,14.8866028
97,80,Hg,7.7898947,-9.435719800000001,176.98628459,20.9490161,1.6450805000000002,6.7360198,,8.8691247,-21.431869,9.0625022,1.5438269,,15.338670700000002,6.146,18.188187000000003
96,81,Tl,7.7321655,,176.996414252,,0.5143587000000001,7.0669981,,7.8918929,,11.9961492,-1.1555646,,15.3401469,8.1649694,16.365000000000002
110,68,Er,7.9990000000000006,3.98,177.956779,9.772,21.228,-1.555,9.417,,-0.762,5.473,11.269,12.175,9.841000000000001,7.904,2.116
109,69,Tm,8.017,5.437,177.952506,11.012,19.428,-0.796,6.097,-15.25,-1.325,4.742,8.671,6.3580000000000005,13.101,9.276,4.706
108,70,Yb,8.0427386,0.6607415,177.9466694,12.3284527,17.624,-0.153,2.7582266,-14.108,-5.3645544,6.7620528,9.397,0.7299266,10.4049904,7.4974726,4.621
107,71,Lu,8.0420554,2.0974851,177.945960065,13.0981837,15.5445002,1.1017242,0.26,-10.057,-5.5284534,6.025295900000001,6.6404473,-4.6844231,13.864248900000002,9.221731100000001,7.6190781
106,72,Hf,8.0494438,-1.837,177.943708322,14.001574100000001,13.5219853,2.0842391,-2.0283,-8.7379324,-8.7919385,7.6259385,7.340434,-8.8911225,11.657774400000001,7.594368,7.906593
105,73,Ta,8.035,-0.191,177.94568,15.376,11.794,2.547,-4.945,-5.503,-8.968,6.955,5.007,-14.344,14.689,8.747,10.214
104,74,W,8.0292584,-4.7536081999999995,177.945885791,15.9080934,10.4085801,3.0126016,-6.8628225,-4.815291500000001,-12.2092087,8.7766529,5.9812915,-18.4095801,11.6691207,6.865642200000001,9.721099500000001
103,75,Re,7.9981576,-2.1092143,177.950989,16.733203399999997,8.8660203,3.6623981,-9.399143700000002,-1.2276833,-11.768327600000001,7.4556005,3.2406977,-23.3504286,15.6989579,8.843397999999999,12.4015974
102,76,Os,7.9819128,-7.2899295,177.953253334,17.5556949,7.4805769,4.2579345,-11.546757600000001,-1.1314834,-15.5681367,9.659113300000001,4.5640392,-27.2288975,12.229454100000002,6.6081238,11.7349593
101,77,Ir,7.9365630000000005,-4.2568282,177.961079395,18.515027300000003,5.7693656,4.9938714,-13.951284900000001,2.7258903,-14.9551952,8.2782073,1.5868368000000002,-31.641000000000002,16.5876777,8.715102000000002,14.680400200000001
100,78,Pt,7.908253,-9.694456700000002,177.965649288,19.2062032,4.4442432,5.5729819,-15.682139900000001,2.6699913000000004,-18.5230674,10.6983671,3.2390320999999997,-35.5708567,12.5952441,6.2610805,13.7542771
99,79,Au,7.8493946,-5.9876832,177.976056714,19.9246981,2.9990484000000004,6.057992100000001,-17.69,6.455424600000001,-17.5985242,8.828610699999999,0.2215634,,17.3416966,8.2697107,16.7378842
98,80,Hg,7.811360700000001,-11.702,177.982484756,20.6733432,1.9593693,6.5773459999999995,-19.888716799999997,5.7661198,-21.046560799999998,11.610841,2.0585805,,12.9164282,5.952395900000001,15.039740900000002
97,81,Tl,7.7410000000000005,-8.187,177.995047,21.341,0.67,7.0200433,,9.644,,9.344,-0.874,,17.882,8.22,18.437
96,82,Pb,7.690835900000001,,178.003836171,,-0.7800676,7.7894724,,9.0602228,,,0.375497,,13.69945,,17.189216100000003
110,69,Tm,8.004,4.739,178.955018,10.474,20.199,-1.026,7.159,-17.059,-0.295,5.731,8.929,8.457,11.668000000000001,9.594,3.136
109,70,Yb,8.026,2.419,178.94993,11.796,18.36,-0.41300000000000003,3.823,-13.669,-4.373,5.034,9.688,2.6550000000000002,11.64,7.595,5.6370000000000005
108,71,Lu,8.035074400000001,1.4040231,178.947332985,12.8177464,16.067,0.8266276,1.298443,-12.108,-4.6949654,6.7924505,6.670845000000001,-2.474701,12.6381984,9.2963646,5.9587116
107,72,Hf,8.0385474,-0.10558010000000001,178.945825705,13.7249271,14.0545739,1.8076045,-1.1677894,-8.0748681,-7.936,6.0989886,7.4141265999999995,-7.4428988,12.631673600000001,7.7833521,8.6746885
106,73,Ta,8.0335869,-1.0622093,178.94593905,14.785347,12.551495500000001,2.3833065,-3.773144,-7.3085466,-8.021708499999999,7.83,5.2110615,-12.2757368,13.2340962,9.083026799999999,8.6712791
105,74,W,8.023282100000001,-2.7109346999999997,178.947079378,15.736152,10.992443600000001,2.7616004,-6.275109400000001,-4.1488521,-11.7131073,6.9594991,5.986,-17.0271195,13.1303055,6.9341878,10.927583199999999
104,75,Re,8.0037666,-3.5641747,178.949989686,16.457773099999997,9.4475089,3.3994248,-8.5025928,-3.275,-11.1113869,9.0021726,3.4662174,-21.5957404,13.8282258,8.9213515,10.427469499999999
103,76,Os,7.9794844000000005,-4.9384182,178.953815985,17.2063256,7.8963487,4.187747000000001,-10.7520101,0.09795720000000001,-14.8371417,7.5472123,4.655651,-26.0872137,13.9598447,6.906808,13.2678732
102,77,Ir,7.9475248,-5.813592,178.959117594,18.176930799999997,6.3904863,4.7816767,-13.093147499999999,0.2827672,-14.1555518,9.8987236,1.8264471000000002,-29.8120874,14.5855358,8.9135204,12.6275732
101,78,Pt,7.9106759,-7.2795556,178.965358742,19.0403268,4.8896214,5.4123174,-15.335203600000002,3.9871448999999997,-18.0364165,8.341959800000001,3.3027846,-34.3197356,14.4901043,6.4778505,15.5094594
100,79,Au,7.8656374,-8.055648,178.973173666,19.5854716,3.5190893,5.9810233,-16.718939900000002,3.9767710000000003,-16.7445441,10.7568609,0.2800572,,15.0926719,8.809402,14.5397531
99,80,Hg,7.8162631000000005,-8.663291800000001,178.981821759,20.299737099999998,2.1404292000000003,6.3508448,-18.984531999999998,7.7755908,-20.391000000000002,8.688896000000002,1.9188659000000001,,15.3236196,6.4520984,17.647397
98,81,Tl,7.7634942,-10.3212401,178.991122185,21.072165000000002,1.3018377,6.7091387000000005,,6.744426000000001,-19.914321,11.728,-0.7567428,,15.2169979,8.379062,15.8977372
97,82,Pb,7.7014629999999995,,179.002202492,,-0.2494889,7.5961352,,11.0779829,,9.5930809,0.624,,16.102518200000002,6.3309353,19.4826491
111,69,Tm,7.9830000000000005,6.55,179.959023,10.072000000000001,20.618000000000002,-1.205,8.507,,0.399,4.341,9.379,10.764,12.801,9.552,3.7560000000000002
110,70,Yb,8.016,1.956,179.951991,11.186,19.038,-0.514,5.059,-15.93,-3.732,6.152,10.109,4.916,10.231,7.713,3.7840000000000003
109,71,Lu,8.0220394,3.103,179.949890744,12.4812315,17.014,0.2699306,2.2571547,-12.065,-4.2847579,5.688781,7.3260000000000005,-0.8391124999999999,13.711470100000001,9.1739836,6.539
108,72,Hf,8.0349319,-0.8458453,179.946559537,13.4867464,14.680279,1.2869306,-0.1432331,-10.429,-7.493338,7.3877578999999995,8.009434,-5.4232783,11.2692116,7.4684819,6.8533306000000005
107,73,Ta,8.025886400000001,0.7026122,179.947467589,14.478,13.1736922,2.0237865,-3.0962671999999998,-7.1635887,-7.709702,6.6474927,5.7595656,-10.9561009,14.212542,8.8111697,9.096674199999999
106,74,W,8.0254434,-3.7988793000000003,179.946713304,15.3718133,11.7788193,2.515269,-5.2800452,-6.4621778,-11.1232489,8.4123142,6.5677579,-15.206367700000001,11.673,6.942557600000001,8.8909046
105,75,Re,7.999992199999999,-1.4811659,179.950791568,16.3265422,9.817,3.1030999,-7.8598337,-2.7688785,-10.8885442,7.3243694999999995,3.8310877999999997,-20.2117173,15.280509200000001,8.7284225,11.5237839