N,Z,element,be_per_a,beta_decay_energy,atomic_mass,s2n,s2p,qa,q2b,qep,qbn,s1n,s1p,q4b,qda,qpa,qna
100,63,Eu,8.115471,4.829,162.939360977,10.836,20.827,-2.35552,8.11119,-17.404,-0.2758,5.8528,9.244,9.893450000000001,10.897879999999999,8.613959999999999,2.164
99,64,Gd,8.140297,3.282185,162.934176832,11.950700000000001,19.21987,-1.5310300000000001,5.06728,-14.073,-3.70925,5.1048,9.89946,3.8538400000000004,11.18844,7.03063,4.567310000000001
98,65,Tb,8.155633,1.785099,162.930653261,13.277120000000002,17.38249,-0.9777,1.78226,-13.18164,-4.48591,6.99143,7.604640000000001,-1.8673499999999998,11.62056,8.209719999999999,4.53079
97,66,Dy,8.161785,-0.002834,162.928736879,14.468,15.45329,-0.24465,-1.2134500000000001,-9.38974,-8.410950000000001,6.27101,7.99418,-7.08208,11.79123,6.319140000000001,7.20697
96,67,Ho,8.156968,-1.210612,162.928739921,15.3237,13.49469,0.72911,-3.64961,-7.991350000000001,-8.11513,8.40811,5.48583,-11.58693,12.38827,8.15845,7.1043199999999995
95,68,Er,8.144741,-2.439,162.930039567,16.10875,11.689860000000001,1.5745,-5.8686300000000005,-4.27522,-11.76125,6.904520000000001,6.41515,-15.904040000000002,12.740350000000001,6.07906,10.15141
94,69,Tm,8.124979,-3.429629,162.932657941,16.97265,10.10939,2.1759,-7.937310000000001,-3.97615,-10.973690000000001,9.32225,3.68317,-20.19409,13.18369,8.19956,9.30041
93,70,Yb,8.099138,-4.507685,162.9363398,17.602330000000002,8.67543,2.83702,-10.03541,-0.25355,-14.53866,7.544060000000001,5.110270000000001,-24.390900000000002,13.31042,5.8669899999999995,12.41154
92,71,Lu,8.066684,-5.5277259999999995,162.941179,18.3717,7.47064,3.35407,-12.256780000000001,-0.6025900000000001,-13.693719999999999,10.03097,2.25403,-28.78916,13.758799999999999,8.23535,11.157020000000001
91,72,Hf,8.027972,-6.7290540000000005,162.947113258,19.091639999999998,6.00222,4.15001,-14.35549,3.27369,-17.554810000000003,8.16599,3.7209000000000003,-33.071,14.00947,5.870310000000001,14.545430000000001
90,73,Ta,7.981890000000001,-7.626436,162.954337195,19.89827,4.55023,4.74906,-16.53238,3.00815,-16.606740000000002,10.825750000000001,0.65459,,14.49085,8.26837,13.38171
89,74,W,7.930302,-8.905949000000001,162.962524511,20.495,3.17146,5.51949,-18.716,6.97184,-20.478,8.9803,2.41697,,14.581610000000001,5.779560000000001,16.67715
88,75,Re,7.870865,-9.81,162.972085441,21.30468,1.80119,6.01199,,6.48898,-19.633,11.572000000000001,-0.70799,,15.264000000000001,8.188270000000001,15.46785
87,76,Os,7.806,,162.982617,22.356,0.215,6.6772,,10.518,,9.823,0.98,,15.359,5.4101300000000005,18.78
103,61,Pm,8.017,9.232,163.958271,8.643,,-4.775,14.511000000000001,,3.778,3.692,,23.208000000000002,11.391,8.582,
102,62,Sm,8.069,5.279,163.94836,9.715,23.13,-3.394,11.672,,0.311,5.454,12.142,17.866,8.978,6.997,0.132
101,63,Eu,8.096,6.393,163.942693,10.82,21.589000000000002,-2.8040000000000003,8.697000000000001,-17.421,-0.138,4.9670000000000005,9.950000000000001,11.601,11.859,8.155,2.501
100,64,Gd,8.13,2.3040000000000003,163.93583,11.636000000000001,19.822,-1.964,6.194,-16.343,-3.249,6.531,10.578,6.1690000000000005,9.64,6.882000000000001,2.544
99,65,Tb,8.139765,3.89,163.933356559,12.54464,17.95251,-1.0224199999999999,2.90354,-12.88205,-3.76811,5.55321,8.05305,-0.17393,12.91324,8.29191,5.35996
98,66,Dy,8.158714,-0.986463,163.929180472,13.929120000000001,16.26551,-0.45114,-0.025079999999999998,-11.94305,-7.66095,7.65811,8.660860000000001,-4.950550000000001,10.4188,6.35768,5.18426
97,67,Ho,8.147929,0.961387,163.930239483,15.082600000000001,13.88349,0.42984,-3.07747,-7.6743999999999994,-7.8851,6.67448,5.8893,-10.339129999999999,13.91078,7.938350000000001,8.12649
96,68,Er,8.14902,-4.038855,163.929207392,15.751,12.339350000000001,1.30492,-4.925470000000001,-6.85069,-11.28548,8.84648,6.8535200000000005,-14.12439,10.80946,6.11844,7.75931
95,69,Tm,8.119622999999999,-0.886617,163.933543281,16.56888,10.440430000000001,2.05378,-7.26166,-2.81467,-10.676260000000001,7.246630000000001,4.02528,-18.62123,15.141290000000001,8.16163,10.939639999999999
94,70,Yb,8.109446,-6.375048,163.934495103,17.33371,9.26084,2.62189,-9.19891,-3.1386700000000003,-14.29733,9.78964,5.57767,-22.78166,11.17118,5.74535,9.83059
93,71,Lu,8.065804,-2.8238649999999996,163.941339,17.95325,7.742520000000001,3.23474,-11.35957,0.79738,-13.450000000000001,7.92228,2.63225,-27.16993,15.89478,8.06109,12.90274
92,72,Hf,8.043814000000001,-8.535703999999999,163.944370544,18.79213,6.570100000000001,3.91929,-13.58275,0.19162,-17.35519,10.62614,4.31607,-31.396400000000003,11.72406,5.60789,11.6673
91,73,Ta,7.986997000000001,-5.047041,163.953534,19.64524,5.02899,4.56222,-15.810360000000001,4.21964,-16.445919999999997,8.81949,1.30809,-35.939,16.597009999999997,7.895930000000001,14.92594
90,74,W,7.951452000000001,-10.763323,163.958952222,20.379189999999998,3.64469,5.278270000000001,-17.813650000000003,3.73895,-20.304830000000003,11.39888,2.9901,,12.25524,5.40729,13.72531
89,75,Re,7.8810519999999995,-7.050331,163.970507124,21.114,2.27018,5.926340000000001,-20.129,7.77322,-19.351,9.54151,-0.14679,,17.23758,7.947,16.95296
88,76,Os,7.833291,-13.078,163.978075966,22.124,1.00084,6.479430000000001,,7.19712,,12.301,1.70883,,12.790000000000001,5.28215,15.780000000000001
87,77,Ir,7.7490000000000006,,163.992116,,-0.58,6.97,,11.370000000000001,,,-1.56,,17.807,7.5,19.143
103,62,Sm,8.043000000000001,6.916,164.95297,9.231,,-3.645,12.645,,1.5010000000000001,3.777,12.227,19.804000000000002,10.152000000000001,7.426,1.389
102,63,Eu,8.08,5.729,164.945546,10.381,22.052,-2.9130000000000003,9.842,-19.142,0.979,5.414,9.91,14.175,10.707,8.67,1.292
101,64,Gd,8.11,4.113,164.939395,11.281,20.311,-2.206,7.16,-15.639000000000001,-2.446,4.75,10.361,8.069,10.743,7.115,3.723
100,65,Tb,8.13,3.047,164.93498,12.112,18.659,-1.199,4.333,-14.474,-2.669,6.559,8.081,2.364,11.459,8.579,3.7840000000000003
99,66,Dy,8.143908999999999,1.2864000000000002,164.931709054,13.37407,16.87666,-0.5317000000000001,0.909,-11.128,-6.70242,5.71596,8.82361,-3.31722,11.694270000000001,6.92741,6.3142
98,67,Ho,8.146964,-0.377396,164.930328047,14.6633,14.88088,0.13767,-1.9693900000000002,-10.11001,-7.027430000000001,7.98882,6.22001,-8.456760000000001,12.192969999999999,8.14653,6.42335
97,68,Er,8.139936,-1.59199,164.930733198,15.49652,12.71838,1.10927,-4.226229999999999,-5.84262,-10.688889999999999,6.65004,6.82908,-12.8861,12.567530000000001,6.38399,9.306270000000001
96,69,Tm,8.125546,-2.634239,164.932442269,16.34353,11.12923,1.84273,-6.48738,-5.23709,-9.98352,9.0969,4.2757,-17.081770000000002,12.94891,8.26895,8.75832
95,70,Yb,8.104839,-3.85314,164.935270241,17.13892,9.7056,2.48131,-8.659870000000002,-1.6414600000000001,-13.72433,7.34928,5.68032,-21.43436,13.14415,6.04646,11.685540000000001
94,71,Lu,8.076745,-4.8067340000000005,164.939406758,17.793470000000003,8.291459999999999,3.03155,-10.594389999999999,-1.82718,-12.69505,9.87119,2.71379,-25.78247,13.56766,8.24816,10.68195
93,72,Hf,8.042872000000001,-5.787655,164.944567,18.51446,6.914350000000001,3.7789800000000002,-12.77448,2.09294,-16.424020000000002,7.88832,4.282109999999999,-29.841,13.86671,6.060300000000001,13.83724
92,73,Ta,8.003054,-6.98683,164.950780303,19.45586,5.63438,4.28958,-15.18808,1.50555,-15.68341,10.636370000000001,1.31832,-34.255,14.12664,8.18521,12.6303
91,74,W,7.955968,-8.201246,164.958280974,20.09546,4.17528,5.0287299999999995,-17.066,5.66851,-19.4599,8.69658,2.86719,,14.38441,5.78323,15.95439
90,75,Re,7.901522,-8.865,164.967085375,20.800169999999998,2.70309,5.694310000000001,-19.067,5.33405,-18.30899,11.25866,-0.28701,,14.95922,8.20349,14.76682
89,76,Os,7.843,-10.202,164.976602,21.745,1.465,6.33549,,9.152000000000001,-22.523,9.444,1.612,,14.918000000000001,5.57035,17.851
88,77,Ir,7.776,,164.987555,,0.168,6.823,,8.591,,12.32,-1.541,,15.311,7.712,16.555
104,62,Sm,8.024000000000001,6.478,165.956275,8.77,,-3.604,13.8,,1.923,4.993,,21.855,8.852,7.384,
103,63,Eu,8.059000000000001,7.322,165.94932,9.969,22.915,-3.263,10.677,,1.174,4.555,10.688,15.864,11.605,8.376,1.688
102,64,Gd,8.098,3.355,165.94146,10.898,21.005,-2.4250000000000003,8.055,-18.01,-2.035,6.148,11.095,10.396,9.562,6.819,1.837
101,65,Tb,8.11368,4.7,165.937858119,11.94946,19.082,-1.6063,5.18654,-14.450000000000001,-2.3435,5.39,8.721,4.00359,12.6,8.29315,4.2465
100,66,Dy,8.13728,0.48654000000000003,165.932812461,12.759459999999999,17.389,-0.7293,2.34125,-13.421000000000001,-5.7571,7.0435,9.308,-0.98905,10.20398,6.8753400000000005,4.3755
99,67,Ho,8.135499,1.854713,165.932290139,14.23246,15.571299999999999,0.17971,-1.1829500000000002,-9.795,-6.62104,6.24364,6.7476899999999995,-7.050350000000001,13.60744,8.1739,7.17114
98,68,Er,8.141959,-3.037667,165.930299023,15.125790000000002,13.53602,0.83052,-3.3303000000000003,-8.60241,-10.06774,8.47575,7.31601,-11.06706,10.76627,6.316350000000001,7.1015299999999995
97,69,Tm,8.118946,-0.292635,165.933560092,16.12697,11.48481,1.72825,-5.86739,-4.27834,-9.66431,7.03007,4.65574,-15.790600000000001,14.765320000000001,8.1434,10.136360000000002
96,70,Yb,8.112471,-5.574759,165.933874249,16.720959999999998,10.23079,2.31386,-7.73676,-4.3631,-13.22482,9.371680000000001,5.95509,-19.70771,11.0191,5.99704,9.21838
95,71,Lu,8.074175,-2.161998,165.939859,17.521250000000002,8.69489,3.0318899999999998,-9.92321,-0.38033,-12.456790000000002,7.650060000000001,3.0145700000000004,-24.1275,15.70724,8.14217,12.35414
94,72,Hf,8.056438,-7.761208,165.94218,18.18311,7.419510000000001,3.54245,-11.97095,-0.85257,-16.08245,10.29479,4.70571,-28.427470000000003,11.494190000000001,5.79648,11.08651
93,73,Ta,8.004971,-4.209744,165.950512,18.957610000000003,6.03335,4.309060000000001,-14.2043,3.0555,-15.30807,8.32124,1.7512400000000001,-32.744,16.431540000000002,8.02996,14.340040000000002
92,74,W,7.9748980000000005,-9.994553,165.955031346,19.79491,4.64747,4.85606,-16.456509999999998,2.4585100000000004,-19.29957,11.09833,3.3291500000000003,-37.159,12.10558,5.51065,13.02205
91,75,Re,7.909977,-6.4619610000000005,165.96576094,20.56368,3.18862,5.4618,-18.539,6.6654,-18.17,9.30502,0.32143,,17.05309,7.87877,16.28755
90,76,Os,7.866336,-12.078,165.972698141,21.15205,1.7737,6.1427700000000005,-20.702,6.14053,-21.91,11.708,2.0607100000000003,,12.75173,5.43478,15.12308
89,77,Ir,7.789000000000001,-8.624,165.985664,22.153,0.46,6.7223500000000005,,10.017,,9.833,-1.1520000000000001,,17.779,7.703,18.295
88,78,Pt,7.732,,165.994923,,-1.115,7.285880000000001,,9.776,,,0.426,,13.325000000000001,,17.109
104,63,Eu,8.040000000000001,6.803,166.952753,9.429,,-3.186,11.917,,2.448,4.874,10.57,18.27,10.509,8.956,0.506
103,64,Gd,8.076,5.114,166.94545,10.503,21.583000000000002,-2.5180000000000002,9.118,-17.372,-1.0,4.355,10.894,12.478,10.622,7.432,2.936
102,65,Tb,8.102,4.0040000000000004,166.93996,11.504,19.781,-1.867,6.354,-16.008,-1.413,6.113,8.686,6.617,11.237,8.711,3.1
101,66,Dy,8.120992000000001,2.35,166.935661823,12.46065,18.056,-1.04166,3.3605500000000004,-12.69,-4.93061,5.4171499999999995,9.33481,0.65995,11.346,7.0113900000000005,5.49
100,67,Ho,8.130379,1.010554,166.933138994,13.52425,16.293,-0.10947,0.26301,-11.68481,-5.4258999999999995,7.28061,6.98481,-4.7795000000000005,12.042790000000002,8.55139,5.44374
99,68,Er,8.131746,-0.747539,166.932054119,14.9122,14.25652,0.66507,-2.7006,-7.99536,-9.474120000000001,6.43646,7.50882,-9.82342,12.318629999999999,6.55438,8.32319
98,69,Tm,8.122585,-1.953065,166.932856635,15.75665,12.22258,1.40978,-5.042520000000001,-6.76128,-9.019219999999999,8.72658,4.906569999999999,-14.19258,12.688780000000001,8.2633,8.08426
97,70,Yb,8.106205,-3.089451,166.934953337,16.43783,10.64691,2.15223,-7.12282,-2.9535,-12.64091,7.0661499999999995,5.99117,-18.492520000000003,13.049850000000001,6.177510000000001,10.998719999999999
96,71,Lu,8.083021,-4.033369,166.93827,17.201520000000002,9.149450000000002,2.80268,-9.15007,-2.90172,-11.71346,9.551459999999999,3.19436,-22.67,13.50506,8.38035,10.04931
95,72,Hf,8.054184000000001,-5.116697,166.9426,17.974880000000002,7.750319999999999,3.4064200000000002,-11.369700000000002,0.83901,-15.4413,7.680090000000001,4.73575,-26.96576,13.685290000000002,6.03867,13.19606
94,73,Ta,8.018861,-6.253001,166.948093,18.64584,6.48676,4.01543,-13.52,0.38095,-14.53435,10.3246,1.78105,-31.27862,13.99525,8.3315,11.93771
93,74,W,7.976733,-7.267,166.954805873,19.379669999999997,5.04049,4.74071,-15.59606,4.47195,-18.275900000000004,8.28134,3.28925,-35.486000000000004,14.460600000000001,6.0488,15.366850000000001
92,75,Re,7.929,-8.329,166.962607,20.314,3.561,5.279,-17.759,3.978,-17.471,11.009,0.232,,14.741,8.269,14.098
91,76,Os,7.8739740000000005,-9.429554,166.971548938,20.85,2.2189099999999997,5.98128,-19.89,8.09707,-21.219,9.14179,1.8974900000000001,,14.868590000000001,5.8345,17.38017
90,77,Ir,7.812825,-10.46,166.981671981,21.622,0.99061,6.5048900000000005,,7.53207,-20.414,11.790000000000001,-1.07011,,15.433,8.21372,16.0464
89,78,Pt,7.746,,166.992901,,-0.605,7.1552,,11.53,,9.954,0.547,,15.691,5.595,19.456
105,63,Eu,8.014,8.623,167.957337,8.675,,-3.295,12.982000000000001,,3.001,3.801,,20.321,11.700000000000001,8.932,
104,64,Gd,8.061,4.359,167.94808,9.976,22.212,-2.686,10.196,,-0.508,5.621,11.642,14.628,9.555,7.2250000000000005,1.091
103,65,Tb,8.082,5.837,167.9434,10.98,20.093,-1.7670000000000001,7.339,-16.001,-0.863,4.867,9.199,8.59,12.518,8.594,3.648
102,66,Dy,8.112536,1.501605,167.937133716,12.11741,18.608,-1.211,4.43161,-15.036,-4.3502600000000005,6.70026,9.922,3.02233,10.03603,6.87,3.54
101,67,Ho,8.116817000000001,2.93,167.935521676,13.13248,16.75432,-0.40812000000000004,1.25175,-11.423,-4.841310000000001,5.851859999999999,7.41952,-2.99332,13.23442,8.41549,6.151
100,68,Er,8.129601,-1.67825,167.932376192,14.20776,14.98432,0.55188,-1.40927,-10.34952,-8.51885,7.771310000000001,7.99952,-7.63062,10.79096,6.771890000000001,6.2678400000000005
99,69,Tm,8.114954,0.26898,167.934177868,15.56718,12.81953,1.24367,-4.24507,-6.32127,-8.793660000000001,6.8406,5.31071,-12.91901,14.32393,8.07274,9.23249
98,70,Yb,8.111898,-4.514051,167.933889106,16.128790000000002,11.233799999999999,1.93607,-6.22135,-5.579689999999999,-12.152090000000001,9.06264,6.32723,-16.68879,11.017280000000001,6.2117700000000005,8.586110000000001
97,71,Lu,8.080372,-1.7072990000000001,167.938735139,17.1895,9.75742,2.41127,-8.67394,-1.81318,-11.67141,7.63804,3.76625,-21.27297,15.238700000000001,8.09159,11.50817
96,72,Hf,8.065553,-6.9666440000000005,167.940568,17.6442,8.34275,3.23195,-10.46744,-2.05895,-15.08081,9.964110000000002,5.1484,-25.36534,11.37124,5.94574,10.58123
95,73,Ta,8.019428,-3.500799,167.948047,18.43877,6.95087,3.8235500000000004,-12.599020000000001,1.8182500000000001,-14.36717,8.11417,2.2151199999999998,-29.72768,16.17588,8.10565,13.69474
94,74,W,7.993933,-9.098224,167.951805262,19.14771,5.61207,4.50048,-14.8979,1.2856800000000002,-18.133,10.866370000000002,3.83102,-33.885650000000005,11.91547,5.8188,12.3888
93,75,Re,7.93512,-5.799671999999999,167.961572608,20.044040000000003,4.27505,5.063,-17.12866,5.2672,-17.36421,9.035,0.9858,,16.80395,7.93019,15.699370000000002
92,76,Os,7.895941,-11.328987,167.967798812,20.70633,2.68512,5.8156300000000005,-18.987750000000002,4.81387,-20.99409,11.564540000000001,2.453,,12.60907,5.52862,14.51221
91,77,Ir,7.82385,-7.658765000000001,167.979960981,21.455000000000002,1.3506900000000002,6.3813,,8.876,-20.125,9.6651,-0.5468,,17.4761,7.993,17.639950000000002
90,78,Pt,7.773605,,167.988183004,22.421,0.15388,6.98973,,8.20556,,12.466000000000001,1.2239900000000001,,13.057,5.449,16.434
105,64,Gd,8.036,6.176,168.9526,9.482,,-2.77,11.444,,0.498,3.861,11.701,16.77,10.568,7.9190000000000005,2.223
104,65,Tb,8.068,5.269,168.94597,10.544,20.896,-2.0300000000000002,8.469,-17.877,0.16,5.6770000000000005,9.254,10.947000000000001,11.195,9.065,2.525
103,66,Dy,8.094763,3.2,168.940313971,11.809190000000001,19.362000000000002,-1.569,5.3259300000000005,-14.523,-3.60732,5.10893,10.164,4.780390000000001,11.041,7.15167,4.579
102,67,Ho,8.109068,2.1259270000000003,168.93687863,12.65919,17.448,-0.656,2.47804,-13.364,-3.87732,6.80732,7.52658,-0.7126100000000001,11.84425,8.651670000000001,4.7340100000000005
101,68,Er,8.117019,0.35210800000000003,168.934596353,13.77456,15.57042,0.26459,-0.54554,-9.652510000000001,-7.6815,6.00325,8.1509,-6.2062100000000004,12.06833,7.01228,7.30809
100,69,Tm,8.114473,-0.89765,168.93421835,14.87421,13.57253,1.1988800000000002,-3.19065,-8.50301,-7.76463,8.03361,5.57301,-10.98478,12.72677,8.51488,7.442520000000001
99,70,Yb,8.104532,-2.293,168.935182016,15.929620000000002,11.66432,1.71913,-5.6606700000000005,-4.6753599999999995,-11.38103,6.86698,6.35361,-15.45969,12.87688,6.37487,10.19488
98,71,Lu,8.086335,-3.367673,168.937643653,16.72607,10.118860000000002,2.42014,-7.79413,-4.0606100000000005,-10.79533,9.088030000000002,3.79163,-19.675330000000002,13.21682,8.37523,9.450209999999998
97,72,Hf,8.061778,-4.4264600000000005,168.941259,17.39177,8.70425,3.15358,-9.79902,-0.42396,-14.3943,7.42765,4.93801,-23.994200000000003,13.495040000000001,6.16815,12.52525
96,73,Ta,8.030957,-5.372557,168.946011,18.082,7.36725,3.7269,-11.881200000000002,-0.5115500000000001,-13.468639999999999,9.96784,2.2188499999999998,-28.19659,13.88813,8.43261,11.37695
95,74,W,7.994537,-6.508641,168.951778677,18.96245,6.028060000000001,4.29272,-14.19518,3.1537100000000002,-17.19431,8.09608,3.81294,-32.405,14.14399,6.04396,14.58751
94,75,Re,7.951395000000001,-7.686541,168.958765991,19.721,4.6361099999999995,5.0137,-16.31539,2.69571,-16.48534,10.68566,0.8050900000000001,-36.621,14.39963,8.34285,13.334940000000001
93,76,Os,7.9012839999999995,-8.628852,168.967017833,20.36333,3.20257,5.71342,-18.21,6.88145,-20.127779999999998,8.79879,2.2167800000000004,,14.819,6.03484,16.81174
92,77,Ir,7.845596,-9.581,168.976281287,21.16403,1.841,6.14102,-20.305,6.4120800000000004,-19.157700000000002,11.49893,-0.6123999999999999,,15.11896,8.20173,15.446040000000002
91,78,Pt,7.784,-10.724,168.986567,22.043,0.588,6.85761,,10.194,,9.576,1.135,,15.271,5.70561,18.565
90,79,Au,7.716,,168.99808,,-0.706,7.3790000000000004,,9.589,,,-1.93,,15.535,7.805000000000001,17.212
106,64,Gd,8.02,5.344,169.955577,9.159,,-3.075,12.284,,0.878,5.298,,18.729,9.071,7.495,
105,65,Tb,8.047,6.94,169.94984,10.144,21.561,-1.941,9.515,,0.802,4.466,9.86,13.072000000000001,12.35,8.953,2.9330000000000003
104,66,Dy,8.083,2.575,169.94239,11.246,19.878,-1.559,6.445,-16.8,-2.938,6.138,10.624,7.101,9.77,7.128,2.7960000000000003
103,67,Ho,8.093796000000001,3.87,169.939625289,12.32014,18.094,-0.77881,3.55717,-13.199,-3.3868899999999997,5.51282,7.930470000000001,1.06754,13.031690000000001,8.556000000000001,5.335
102,68,Er,8.111959,-0.312828,169.935470673,13.26014,16.12706,0.05119,0.65524,-11.800469999999999,-6.90479,7.25689,8.60047,-3.85483,10.6633,7.0360000000000005,5.46835
101,69,Tm,8.105517,0.9680660000000001,169.935806507,14.62557,14.31262,0.85056,-2.48963,-8.28765,-7.48961,6.59196,6.161720000000001,-9.658190000000001,13.906120000000001,8.35938,8.131170000000001
100,70,Yb,8.106609,-3.457695,169.934767245,15.32465,12.35069,1.7372100000000001,-4.51006,-7.12979,-10.75067,8.45767,6.77768,-13.473090000000001,11.25981,6.64378,8.17366
99,71,Lu,8.081668,-1.0523699999999998,169.938479234,16.38101,10.57124,2.15724,-7.16856,-3.31998,-10.66065,7.29298,4.21763,-18.39303,14.98648,8.14841,10.88382
98,72,Hf,8.070875000000001,-6.11619,169.939609,17.03594,9.249889999999999,2.91697,-8.96302,-3.1652600000000004,-14.03474,9.60828,5.45826,-22.32761,11.524799999999999,6.11133,9.983120000000001
97,73,Ta,8.030296,-2.846832,169.946175,17.88639,7.647760000000001,3.4584,-11.22447,0.65793,-13.291110000000002,7.918550000000001,2.70975,-26.778000000000002,15.93369,8.19415,13.009860000000002
96,74,W,8.008948,-8.377638999999999,169.9492312,18.54036,6.508220000000001,4.14324,-13.36459,0.13709000000000002,-16.95292,10.444280000000001,4.28937,-30.99164,11.81388,5.9242799999999995,11.82333
95,75,Re,7.955064999999999,-4.986946,169.958224966,19.260939999999998,5.09723,4.75967,-15.554,4.08827,-16.26182,8.575280000000001,1.28429,-35.161,16.690720000000002,8.04892,15.08427