N,Z,element,be_per_a,beta_decay_energy,atomic_mass,s2n,s2p,qa,q2b,qep,qbn,s1n,s1p,q4b,qda,qpa,qna
74,45,Rh,8.3033953,8.5844751,118.932556951,10.0686798,29.261,-9.451,15.8229567,-26.822,4.494237699999999,6.0072806000000005,13.112,24.8758563,7.3778759,6.1101703,-5.963
73,46,Pd,8.3689594,7.2384816,118.923341138,11.1260236,26.4953484,-7.7268974,12.5696615,-21.696,0.075207,4.0902374,13.809408600000001,18.6577075,8.2002883,4.1925205,-1.6919578
72,47,Ag,8.423212600000001,5.3311799,118.915570309,12.606476800000001,24.3269425,-6.841446299999999,9.0528997,-21.0478902,-0.0154277,7.1632746,10.546372,10.829780699999999,8.488937900000002,6.0493228,-2.2636141
71,48,Cd,8.461438099999999,3.7217197,118.909847052,13.7011777,22.1309911,-5.9760325000000005,6.088046,-15.8775519,-4.82008,5.3466077,11.7121075,3.2056008,8.915786400000002,3.4297806,1.5004899
70,49,In,8.4861387,2.3663263000000003,118.905851622,14.8982593,20.0946825,-5.1409875000000005,1.7768811,-15.4338273,-4.1171334,8.5417997,8.2859804,-3.9209269,9.430545700000001,5.8778858000000005,0.4904079
69,50,Sn,8.4994494,-0.5894452,118.903311266,15.809878300000001,18.224529699999998,-4.4054207,-2.8824452000000003,-10.652306699999999,-10.140098900000002,6.483459600000001,10.125779000000001,-11.2704965,9.588857599999999,3.0488290000000005,4.2939065
68,51,Sb,8.4879218,-2.293,118.903944062,16.9786119,15.1104464,-2.3640987,-5.697808,-9.536333800000001,-9.8560996,9.550653800000001,5.1116674,-17.1704782,11.63301,6.9144946,4.420621199999999
67,52,Te,8.4620785,-3.404808,118.906405699,18.2296753,11.3627391,0.4263905,-8.388051299999999,-2.8186674,-14.2828011,7.5630996,6.4753068,-22.5924433,12.1678313,4.5035356,9.9898416
66,53,I,8.426892400000002,-4.9832433,118.91006091,19.4817994,9.7161099,0.8007649,-11.472670200000001,-3.0704987999999998,-13.769982400000002,10.8779931,3.3759446,-28.758,12.0285759,6.3501163,8.6906905
65,54,Xe,8.378442,-6.489426900000001,118.915410641,20.751777399999998,8.27693,0.8433634,-14.204392,1.6072986,-18.4564296,8.7867391,5.1124029,-34.974000000000004,12.354887000000002,3.4902208000000003,12.1157066
64,55,Cs,8.3173347,-7.714965100000001,118.922377327,21.9545967,6.4444352,1.6078276,-17.285,1.3770241,-18.177,11.9670027,1.5149652000000002,,12.5910926,5.6058713,10.761994699999999
63,56,Ba,8.2459287,-9.57,118.930659683,23.2748259,4.9826914,1.6417452000000001,-20.77,6.1999999,-23.042,10.462,3.4696905,,12.613811600000002,2.317,14.1031834
62,57,La,8.159,-11.199,118.940934,24.892,3.104,2.255,,6.101,,13.471,0.109,,13.149000000000001,4.224,12.669
61,58,Ce,8.058,,118.952957,,0.9400000000000001,2.6750000000000003,,11.09,,,1.489,,13.161,1.094,16.206
77,43,Tc,8.083,14.72,119.962426,7.852,,-12.194,23.62,,9.009,2.902,15.709,40.652,8.081,5.553,
76,44,Ru,8.199,8.899000000000001,119.946623,8.863,31.928,-10.935,20.559,-30.429000000000002,5.031,5.712,16.84,34.237,4.281,3.283,-8.385
75,45,Rh,8.266,11.66,119.937069,9.876,29.908,-9.831,17.032,-25.739,4.716,3.868,13.829,27.108,9.091,5.734,-4.8340000000000005
74,46,Pd,8.3570817,5.371907599999999,119.924551745,11.033882600000002,27.858,-8.6356029,13.6777611,-25.489,0.29483640000000005,6.9436452,14.7457732,20.818136600000003,5.3180424,3.4812093,-5.1433311
73,47,Ag,8.3953281,8.3058535,119.918784765,12.2403458,25.3426144,-7.3406853000000005,10.0762289,-20.1176809,0.2541087,5.077071200000001,11.5332058,12.765621300000001,10.4476529,5.636433,-1.1083513
72,48,Cd,8.458024,1.7703754,119.909868065,13.3983524,23.1469497,-6.5512549,7.1403754,-19.839059300000002,-4.330025,8.0517448,12.6005777,5.404795,6.3072439000000005,3.0886079,-1.8870735
71,49,In,8.4662575,5.37,119.907967489,14.6422002,20.7518807,-5.6099926,2.6893924,-14.370953100000001,-3.7340742000000002,6.1004005,9.039773199999999,-1.9805805,11.6847153,5.5547114,2.1005794
70,50,Sn,8.504488,-2.6806076,119.902202557,15.5875338,18.9740339,-4.8101677,-1.7355805,-14.4097732,-9.6935194,9.1040742,10.6880535,-8.925306500000001,6.841243,2.7093496,0.9670584
69,51,Sb,8.475629999999999,0.9450271,119.905080308,16.5635656,15.766898600000001,-2.5922905999999997,-4.669972899999999,-8.0074459,-9.3059118,7.0129118,5.6411197,-14.5284846,13.9465169,6.8446644,6.172304100000001
68,52,Te,8.4769857,-5.615,119.904065779,17.8140386,12.287259400000002,-0.26109730000000003,-7.189725999999999,-6.586146800000001,-13.6557469,10.2509389,7.175591900000001,-20.4735117,9.344850500000002,4.1414585,6.6819843
67,53,I,8.423674499999999,-1.574726,119.910093729,18.9187401,10.3288987,0.6499436,-9.8585117,-1.5605919,-13.0239902,8.0407469,3.8535919,-26.177,14.6544046,6.2123952000000005,10.5388055
66,54,Xe,8.4040322,-8.283785700000001,119.911784267,20.2360033,9.0596186,0.6664424,-13.283785700000001,-2.2788659,-17.9386911,11.4492642,5.6836739,-32.443,9.5094291,3.1301891,8.5694682
65,55,Cs,8.328481100000001,-5.0,119.920677277,21.621908,7.4955343,1.1070893000000002,-16.319,2.6001118,-17.3698705,9.6549054,2.3831315,,14.9012256,5.1607535,12.1963218
64,56,Ba,8.280294900000001,-11.319,119.926044997,22.832,5.387523600000001,1.7333129,-19.159,2.6168685000000003,-21.94,12.369870500000001,3.8725584,,10.231535099999999,2.4685073,10.9431005
63,57,La,8.179,-7.84,119.938196,24.093,3.739,2.048,,7.446,-21.821,10.622,0.269,,15.34,4.752,14.569
62,58,Ce,8.108,,119.946613,,2.108,2.225,,7.571,,13.981,1.999,,10.601,1.405,13.375
78,43,Tc,8.054,13.08,120.96614,7.513,,,24.71,,10.109,4.612,,42.862,5.751,5.694,
77,44,Ru,8.156,11.63,120.952098,8.683,32.618,-11.356,21.562,,5.928,2.971,16.909,36.453,6.26,3.5340000000000003,-6.604
76,45,Rh,8.2452397,9.932203,120.939613,9.569968500000002,30.658,-10.535,18.152696499999998,-28.539,5.9581517999999996,5.702,13.819,29.5844586,6.541,5.614,-7.313
75,46,Pd,8.320858399999999,8.220493399999999,120.928950342,10.9176964,28.68,-9.1173824,14.8914992,-23.751,1.3978564,3.9740512,14.851,23.0142887,7.351271700000001,3.5685573,-3.536
74,47,Ag,8.3823306,6.6710057,120.920125279,11.8997083,26.157970900000002,-7.9309884,11.4317621,-23.072,1.4832164,6.8226371,11.4121977,15.1963259,7.7152533000000005,5.8495821,-3.8695891000000002
73,48,Cd,8.4309972,4.7607564,120.91296366,13.2395341,24.2445016,-7.0748628,8.1227895,-18.0832034,-3.4174139,5.1877893,12.7112958,7.469274,8.2827292,3.3440208,-0.0390766
72,49,In,8.4638767,3.3620331,120.907852778,14.278570700000001,21.766776399999998,-6.0775908,3.7645638,-17.4720522,-2.8081703000000005,8.1781703,9.1661987,0.41105610000000004,8.8531527,5.7311112,-0.6343886
71,50,Sn,8.485196400000001,0.4025306,120.904243488,15.2742776,19.7976296,-5.203144900000001,-0.6535155,-12.5282318,-8.850811,6.1702034,10.757856400000001,-6.7156295,9.2128393,2.8956058,3.1514251
70,51,Sb,8.4820574,-1.0560462,120.903811353,16.2662534,16.4784405,-3.0810375,-3.3535077,-11.160387,-8.3083145,9.2533416,5.790387,-12.496815000000002,11.1766349,6.9177415,3.2754220999999997
69,52,Te,8.4668641,-2.2974615,120.904945065,17.5032073,13.056068100000001,-0.570284,-6.062113999999999,-4.7343409,-12.8672683,7.2522683,7.4149485,-17.7982637,11.6432359,4.3171484,8.7561347
68,53,I,8.4414111,-3.7646525000000004,120.907411492,18.6105537,11.348051700000001,-0.031001300000000002,-9.1433074,-5.1174869,-12.1445328,10.5698068,4.1724597999999995,-24.055,11.6476974,6.309164,7.3969569
67,54,Xe,8.4038326,-5.378654900000001,120.911453012,19.829144499999998,9.8763992,0.1895879,-11.7361497,-0.4078073,-16.663666000000003,8.379880300000002,6.0228073,-29.791,12.0075419,3.3541149999999997,10.856163500000001
66,55,Cs,8.3529152,-6.3574948000000004,120.917227235,20.9399166,7.902552399999999,0.9113106000000001,-14.912,-0.6441524,-16.2850112,11.285011200000001,2.2188784999999998,-35.551,12.4029535,5.8407806,9.5151169
65,56,Ba,8.2939083,-8.555,120.924052286,22.297386900000003,6.5283009000000005,1.0155841,-18.055,4.1386163,-21.246000000000002,9.9275164,4.1451693999999994,,12.2710214,2.528585,12.9806224
64,57,La,8.217,-9.5,120.933236,23.313,4.463,1.8780000000000001,-20.639,4.409,-20.532,12.692,0.591,,13.111,4.873,11.866
63,58,Ce,8.132,-11.139,120.943435,25.012,2.678,2.343,,8.91,,11.032,2.4090000000000003,,13.040000000000001,1.794,15.156
62,59,Pr,8.033,,120.955393,,1.109,2.295,,8.73,,,-0.8895999000000001,,12.98,,13.715
78,44,Ru,8.132,10.099,121.955147,8.203,,-11.835,22.836000000000002,,6.399,5.231,17.529,38.832,3.93,3.254,-9.554
77,45,Rh,8.208,12.737,121.944305,9.402000000000001,31.458000000000002,-11.014,19.227,-27.628,6.231,3.701,14.548,31.692,8.552,5.064,-6.063
76,46,Pd,8.3059755,6.4899492,121.930631693,10.479200800000001,29.474,-10.041,15.996215399999999,-27.285,1.7153439000000001,6.505149500000001,15.6550055,25.323784,4.714,3.0706884,-6.890000000000001
75,47,Ag,8.3527591,9.5062662,121.923664446,11.5972423,27.064,-8.6441944,12.4652428,-22.1449547,1.8964005,4.7746053,12.2127517,17.228086599999997,9.8842932,5.1652143,-2.6369138
74,48,Cd,8.4242667,2.9589765000000003,121.91345905,12.7976551,24.910722200000002,-7.6489424,9.327568600000001,-21.7190179,-2.8491093000000003,7.6098657,13.4985245,9.700897600000001,5.7499346,2.8974296,-3.5587049000000004
73,49,In,8.442107900000002,6.3685921,121.910282458,13.9862561,22.4977911,-6.4424745,4.7628438,-16.457501,-2.4460528,5.8080859,9.7864953,2.507921,11.0968116,5.269633,0.7208001
72,50,Sn,8.487896800000001,-1.6057483,121.903445494,14.9848482,20.5605297,-5.6632197,0.37332889999999996,-16.1550874,-8.4121142,8.8146449,11.394331000000001,-4.5849648,6.4985949000000005,2.6227606999999997,-0.3166121
71,51,Sb,8.468322200000001,1.9790772,121.905169335,16.059707500000002,17.184406,-3.5309438,-2.2549227999999997,-9.788582700000001,-7.862412099999999,6.8063659,6.4265496,-10.189436,13.4743432,6.5948352,5.010855899999999
70,52,Te,8.4781315,-4.234,121.903044708,17.0937576,13.7934832,-1.0853545999999998,-4.9582937000000005,-8.4056268,-12.1389508,9.8414893,8.0030962,-15.704330200000001,8.8146584,4.0263128,5.398104999999999
69,53,I,8.4370139,-0.7242936999999999,121.907590094,18.4747576,12.2400908,-0.5079940000000001,-7.9345132000000005,-3.7690962,-11.6696033,7.9049508,4.8251423,-21.536,13.9936855,5.9673128,9.0426598
68,54,Xe,8.4246644,-7.2102195,121.908367655,19.32519,10.5707699,-0.0891461,-10.7460365,-4.1008486,-16.3239645,10.9453096,6.3983101,-27.481,9.1029792,3.2867984999999997,7.4739534999999995
67,55,Cs,8.3591515,-3.535817,121.916108144,20.3987562,8.9755504,0.4013719,-13.602,0.8119094,-15.4712398,9.113745000000002,2.9527431,-33.365,14.7384727,5.5137747,11.279365
66,56,Ba,8.3237567,-10.066,121.919904,21.8629392,7.0144595,1.0451996,-16.735,0.5830738,-20.490000000000002,11.935422800000001,4.795581,,9.9905039,2.5601648,9.8319387
64,58,Ce,8.174,-13.094,121.93787,24.287,3.563,1.901,,5.582,-24.394000000000002,13.255,2.972,,10.407,2.0100000000000002,12.363
63,59,Pr,8.06,,121.951927,,1.788,2.415,,10.122,,11.3,-0.621,,15.661,3.9050000000000002,15.886000000000001
79,44,Ru,8.089,12.64,122.960762,8.072000000000001,,-12.395,23.88,,7.258,2.841,17.534,40.864000000000004,5.7010000000000005,3.314,
78,45,Rh,8.185,11.239,122.947192,9.083,32.228,-11.446,20.378,-30.174,7.355,5.382,14.699,34.239,6.141,5.394,-8.544
77,46,Pd,8.270031800000002,9.1388323,122.935126,10.390047200000001,30.387,-10.775,16.9844349,-25.938,2.6050515,3.8848976,15.839,27.3849342,6.531193,3.0540000000000003,-5.063
76,47,Ag,8.3379707,7.8456026,122.92531506,11.308386,27.8963884,-9.1706945,13.8604529,-24.978,2.9724855,6.5337807,12.241382900000001,19.6543098,7.3245637,5.5750787,-5.3020000000000005
75,48,Cd,8.395395500000001,6.0148503,122.91689246,12.482982900000001,25.809788,-8.4318221,10.4004993,-20.0869855,-1.9141406,4.873117100000001,13.5970363,11.7567944,7.6994546,3.1013837,-1.4881769
74,49,In,8.437936200000001,4.3856489000000005,122.910435252,13.7370768,23.6041449,-7.208190800000001,5.7938569,-19.6118867,-1.5603988,7.9289909,10.1056205,4.5135542,8.3556099,5.392386900000001,-2.1311196
73,50,Sn,8.4672313,1.4082079,122.905727065,14.7606926,21.318788100000003,-6.262659800000001,1.3562951,-14.4912694,-7.551796,5.9460478000000005,11.5322929,-2.5664249,8.7307174,2.7771134,1.7890849000000002
72,51,Sb,8.4723196,-0.051912799999999995,122.904215292,15.7663699,17.9662397,-3.949148,-1.2803026,-12.9405008,-6.9809267,8.960004000000001,6.5719087,-8.179234000000001,10.6845426,6.7389054999999995,2.1512525
71,52,Te,8.465537000000001,-1.2283898,122.904271022,16.7705032,14.5522937,-1.530909,-3.92272,-6.5199959,-11.1630139,6.9290139,8.1257441,-13.516014499999999,11.1389861,4.1102107,7.573165299999999
70,53,I,8.4491896,-2.6943302,122.905589753,17.8395749,12.921373299999999,-0.8919643,-6.8989313,-6.8973543,-10.6589178,9.9346241,4.9182771,-19.291,11.3113297,6.2836276,6.120947500000001
69,54,Xe,8.4209239,-4.2046012,122.908482235,18.9098973,11.2830893,-0.4906342,-9.5932946,-2.2239470000000003,-15.1748072,7.9645877,6.457947,-24.962,11.708198399999999,3.3629578,9.7603048
68,55,Cs,8.380379600000001,-5.3886934,122.91299606,20.083951000000003,9.3759496,0.309159,-12.393,-2.2533458,-14.506022999999999,10.970206000000001,2.9776395000000004,-30.814,12.148147000000002,5.992832900000001,8.349906
67,56,Ba,8.3302086,-7.0040000000000004,122.91878106,21.052752400000003,7.7519087,0.7146091,-15.369,2.4110538999999998,-19.183,9.1173296,4.7991656,,12.158185600000001,3.0977406000000003,12.163873299999999
64,59,Pr,8.104000000000001,,122.946076,24.821,2.618,2.365,,7.024,,13.521,-0.355,,13.171000000000001,4.364,12.987
80,44,Ru,8.065,11.120000000000001,123.96394,7.952,,,24.810000000000002,,7.529,5.111,,43.11,3.427,2.815,
79,45,Rh,8.148,13.69,123.952002,8.973,32.982,-12.135,21.52,,7.649,3.591,15.449,36.158,7.781000000000001,4.775,-7.523000000000001
78,46,Pd,8.252,7.83,123.937305,9.926,31.198,-11.105,18.299,-29.139,3.097,6.042,16.499,29.831,4.19,2.714,-8.133000000000001
77,47,Ag,8.3088958,10.469485800000001,123.928899227,11.266468699999999,28.928,-10.035,14.6378278,-24.329,3.1129146000000003,4.7326880000000005,13.0891733,21.3891181,9.097025200000001,4.8164419,-4.3334141
76,48,Cd,8.3870179,4.168342,123.917659772,12.2296883,26.6612097,-8.8447481,11.532039000000001,-23.5586591,-1.3417208,7.3565712,14.419826800000001,13.8247053,5.1174886,2.5674495999999998,-4.8706968
75,49,In,8.4143243,7.363697,123.913184873,13.4390538,24.3396025,-7.6411824,6.7512903,-18.5881688,-1.1244139,5.5100628,10.742566199999999,6.4967763000000005,10.455412899999999,5.0701133,-0.8185454
74,50,Sn,8.4673997,-0.6124067,123.905279619,14.434158600000002,22.1970333,-6.699026,2.2926663,-18.1062632,-7.079903000000001,8.4881109,12.0914128,-0.5640705,6.0506924,2.4671727999999997,-1.5112367
73,51,Sb,8.456151700000001,2.905073,123.905937065,15.4275003,18.625650099999998,-4.316243900000001,-0.254514,-11.4790062,-6.5194091,6.4674963,7.093357200000001,-5.8780083,13.0316912,6.441612500000001,3.8619263999999998
72,52,Te,8.4732705,-3.159587,123.902818341,16.353496,15.162130900000001,-1.8513168000000002,-2.8567368,-9.998430200000001,-10.652871900000001,9.424482099999999,8.590222299999999,-11.4343561,8.5208699,3.9390702,4.3188866
71,53,I,8.4414807,0.3028501,123.906210297,17.427909,13.6082922,-1.3723374,-5.623494300000001,-5.4306353,-10.1876151,7.4932849,5.4825481,-17.1059376,13.659534100000002,6.042611,7.8810042000000005
70,54,Xe,8.4376138,-5.9263445,123.905885174,18.4550529,11.932065199999998,-0.7301604,-8.577619199999999,-5.7853981999999995,-14.6950664,10.490465200000001,7.0137881,-22.752,9.122684,3.4422994,6.5221079
69,55,Cs,8.3835114,-2.6512748000000004,123.912247366,19.7389279,10.2397207,-0.41881599999999997,-11.482443300000002,-1.0874436,-14.1574153,8.768721900000001,3.7817738,-28.59,14.3247347,5.6039913,10.1509908
68,56,Ba,8.355820900000001,-8.8311685,123.915093627,20.6234701,8.3127396,0.6577328,-14.174,-1.1304990000000001,-18.51,11.506140499999999,5.3351002,-34.26,9.76579,2.8766113,9.037613100000002
67,57,La,8.2782926,-5.343,123.924574275,21.858,6.6917906,1.2051156,-17.108,3.4960684,-18.044,9.679,1.892625,,15.061141600000001,5.350285,12.4901268
66,58,Ce,8.229000000000001,-11.765,123.93031,23.185,4.885,1.548,-20.086000000000002,3.45,-22.757,12.701,3.5540000000000003,,10.338000000000001,2.1390000000000002,11.475
65,59,Pr,8.128,-8.321,123.94294,24.514,3.186,1.994,,8.211,,10.992,0.154,,15.433,4.4030000000000005,14.686
64,60,Nd,8.054,,123.951873,,1.534,2.475,,8.167,,,1.889,,10.661,1.585,13.506
80,45,Rh,8.124,12.13,124.955094,8.782,,-12.714,22.69,,8.499,5.191,15.529,38.583,5.431,4.815,-9.878
79,46,Pd,8.215,10.56,124.942072,9.672,31.988,-11.764000000000001,19.388,-27.659,4.199,3.6310000000000002,16.539,31.934,5.942,2.7840000000000003,-6.533
78,47,Ag,8.2933151,8.8281511,124.930735,11.0939945,29.908,-10.694720499999999,15.8923688,-27.099,4.1081793,6.3613064,13.409,23.7351549,6.6206164,4.960285,-6.994
77,48,Cd,8.3576815,7.0642177,124.92125759,12.0765429,27.4962838,-9.5906686,12.545567199999999,-22.237000000000002,-0.5516298000000001,4.719971800000001,14.407110500000002,15.6737038,6.9312976,2.6220830999999998,-3.0855191
76,49,In,8.4079365,5.4813495,124.913673841,13.1259103,25.4216692,-8.4343928,7.8427861000000005,-21.471328200000002,-0.2521504,7.6158474,11.0018424,8.4237161,7.7126825,5.0641316,-3.6597876
75,50,Sn,8.4455285,2.3614366,124.90778937,14.2216109,23.057416099999998,-7.2447366,3.1281366,-16.483192,-6.3459066,5.7335,12.31485,1.3057034,8.2461834,2.5417587,0.3651291
74,51,Sb,8.458161200000001,0.7667,124.905254264,15.174839500000001,19.404002400000003,-4.8454168,0.58093,-14.6762865,-5.8022703,8.7073432,7.312589600000001,-4.1653516,10.2703957,6.5489142000000005,0.9626690999999999
73,52,Te,8.4580361,-0.18577000000000002,124.904431178,15.993452300000001,15.7850534,-2.2500837000000002,-1.8224332,-8.079289600000001,-9.7285572,6.5689703,8.6916962,-9.352818,10.9119036,4.1764659,6.5645612
72,53,I,8.450291100000001,-1.6366632,124.90463061,17.036072100000002,14.191075500000002,-1.661783,-4.7462816000000005,-8.5059262,-9.239937099999999,9.542787200000001,5.6008533,-15.0765315,11.0457608,6.341313100000001,5.1445829000000005
71,54,Xe,8.430939,-3.1096184,124.90638764,18.0937391,12.6063251,-1.081166,-7.5303848,-3.9641900999999997,-13.5296184,7.6032739000000005,7.1237770000000005,-20.542,11.4540342,3.7439763,8.7603233
70,55,Cs,8.3998033,-4.4207663,124.909725953,19.1887219,10.7250965,-0.2690091,-10.3302499,-4.0141586,-13.0712747,10.4199999,3.7113085000000003,-26.019000000000002,11.8693225,6.129301000000001,7.6359417
69,56,Ba,8.358178400000002,-5.9094836,124.91447184,20.1566489,8.9986603,0.38710469999999997,-13.011000000000001,0.7094579,-17.4816769,8.650508400000001,5.2168866,-31.599,12.0854876,3.3398479,11.3324144
68,57,La,8.3046438,-7.102,124.92081593099999,21.251,7.2937780000000005,0.9179334,-15.689,0.692597,-16.915,11.5721933,1.9586778,,12.6062778,5.7135145000000005,10.0316784
67,58,Ce,8.242,-8.587,124.92844,22.514,5.581,1.6620000000000001,-18.588,5.143,-21.578,9.813,3.688,,12.704,2.75,13.598
66,59,Pr,8.167,-10.001,124.937659,23.983,3.997,1.695,,4.899,-21.312,12.991,0.443,,12.927,4.668,12.119
65,60,Nd,8.08,,124.948395,,2.361,2.195,,9.557,,11.311,2.208,,12.871,1.574,15.450000000000001
81,45,Rh,8.087,14.59,125.960064,8.633000000000001,,-13.32,23.52,,8.688,3.442,16.12,40.609,7.1000000000000005,4.214,
80,46,Pd,8.197000000000001,8.93,125.944401,9.533,32.778,-12.435,20.466,-30.71,4.658,5.902,17.249,34.225,3.6310000000000002,2.2640000000000002,-9.594
79,47,Ag,8.261000000000001,11.535,125.934814,10.633000000000001,30.588,-11.266,17.089,-26.18,4.556,4.272,14.05,25.673000000000002,8.39,4.573,-5.884
78,48,Cd,8.3467393,5.553649999999999,125.92243029,11.6989267,28.434,-10.064474,13.7594085,-25.585,0.0852627,6.978955,15.024759099999999,17.8084406,4.6850306,2.1769089,-6.1795764
77,49,In,8.3846067,8.2057585,125.916468202,13.0842348,26.1573685,-9.1281749,8.5837585,-20.578409100000002,0.0129622,5.468387300000001,11.750258,10.1011194,9.600866400000001,4.4688615,-2.5943941
76,50,Sn,8.443522699999999,0.378,125.907658958,13.926296200000001,23.893641199999998,-7.8276671,4.0490321,-19.9560165,-5.8313597,8.1927963,12.8917988,3.1312514,5.5634499,2.2779533,-2.9545500000000002