N,Z,element,be_per_a,beta_decay_energy,atomic_mass,s2n,s2p,qa,q2b,qep,qbn,s1n,s1p,q4b,qda,qpa,qna
20,15,P,8.4462496,3.9884006,34.973314045,14.6630949,30.9383692,-12.3320163,4.1557224,-29.149161499999998,-2.9974378,8.3804257,12.155096200000001,-13.6849159,6.3673259,4.0839352,-8.1120386
19,16,S,8.5378511,0.1673218,34.969032321,18.4029877,22.9098239,-8.322088299999999,-5.798921099999999,-16.1434969,-12.477442100000001,6.9858384,11.5864793,-34.036,8.2019476,0.3227217,0.8778815
18,17,Cl,8.520279,-5.9662429,34.968852694,24.152827600000002,17.2541233,-6.997903,-17.8406383,-11.7538011,-18.7065569,12.644763900000001,6.3708132,-56.113,8.2831337,1.8660607,0.9377469
17,18,Ar,8.3274621,-11.8743955,34.975257719,29.80563,11.039372499999999,-6.4296731000000005,-28.238,-0.4045703,-29.898,12.740314,5.896174,,8.666858399999999,-4.8485277,8.614650600000001
16,19,K,7.9658409,-16.363,34.988005406,34.856,4.7474953,-6.5632566,-38.273,5.9782215,-34.134,18.024,0.08357160000000001,,8.9222086,-4.1084858,7.8082148
15,20,Ca,7.476,-21.91,35.005572,41.982,0.003,-8.56,,16.28,,17.771,0.878,,8.361,-11.935,13.037
25,11,Na,6.557,25.523,36.049279,1.92,,,39.952,,22.192,-0.0,,66.154,3.7720000000000002,4.636,
24,12,Mg,7.2444201999999995,14.4297751,36.021879,4.0858008,47.039,-19.044,32.816284800000005,,12.5325711,3.3309446,24.740000000000002,51.044300400000004,-0.5891479000000001,1.4641017,-20.104
23,13,Al,7.6235154000000005,18.3865096,36.006388,7.1946331,40.3076722,-15.1146831,26.201429,-39.17,12.270546399999999,1.8972041,16.9783727,35.4723923,8.337867200000002,5.8515666,-12.1833264
22,14,Si,8.1125199,7.8149194,35.986649271,8.5870774,35.337391499999995,-14.032140400000001,18.2280156,-35.3648823,4.3503658,6.115963300000001,19.5013667,17.795417,1.2723005,0.925312,-11.752596
21,15,P,8.307869199999999,10.4130962,35.97825961,11.8449793,31.8313681,-11.576592199999999,9.2709633,-27.316286100000003,0.5238471,3.4645535,13.1485357,-2.8338631000000003,10.451446400000002,5.1273386,-6.1072604
20,16,S,8.575389999999999,-1.1421329,35.967080692,16.8750876,25.250399,-9.0113676,-0.4325986,-23.561631900000002,-9.721927299999999,9.8892491,13.095302799999999,-24.2129748,4.5953677,0.5372646999999999,-4.5034106000000005
19,17,Cl,8.5219322,0.7095343000000001,35.968306822,21.224558400000003,19.5512486,-7.642047499999999,-12.1048264,-11.9531699,-14.5460374,8.5797945,7.9647692,-45.672000000000004,11.1204885,1.9279055,2.4617446
18,18,Ar,8.519909600000002,-12.8143607,35.967545106,27.9958856,14.877794900000001,-6.6409210000000005,-23.7803761,-8.6743035,-27.129967100000002,15.2555716,8.5069817,,4.919350499999999,-4.364147,2.0007182
17,19,K,8.1422233,-10.9660155,35.981301887,32.34,7.5550379,-6.5073916,-33.567,4.307379,-30.679000000000002,14.3156064,1.6588639,,11.6719182,-3.1688315,9.2325607
16,20,Ca,7.8158799,-22.601,35.993074388,37.484,2.6508155,-6.6757297,,9.3071515,-41.622,19.713,2.5672439,,5.48,-9.128,8.5795309
15,21,Sc,7.166,,36.017338,,-2.793,-8.264,,20.034,,19.021,-3.6710000000000003,,11.971,-10.016,14.256
26,11,Na,6.4030000000000005,24.923000000000002,37.057042,0.84,,,43.325,,24.683,0.84,,72.13,,5.157,
25,12,Mg,7.0551115,18.4019132,37.030286265,3.5709445,,-20.344,34.7829897,,14.1897752,0.24,24.98,55.107903400000005,1.091,1.3954183,-18.984
24,13,Al,7.531316,16.3810765,37.010531,6.1093421,42.6,-16.3954644,28.805576700000003,-43.382,14.1743716,4.212138,17.859566100000002,41.5711161,4.8805854,6.3502955000000005,-16.2241478
23,14,Si,7.9529033,12.4245003,36.992945191,8.322668100000001,36.7892402,-13.9593009,20.324913799999997,-34.2406426,5.6082145,2.2067049,19.8108675,24.376166700000002,4.3630246,1.2901618000000001,-9.248434
22,15,P,8.2675561,7.9004135,36.979606942,10.2808393,33.35022480000001,-12.9235461,12.7655393,-32.2353677,3.5968105,6.816285700000001,13.8488581,5.804188900000001,6.1062748000000004,5.8597269,-10.351991400000001
21,16,S,8.459936299999999,4.8651257999999995,36.9711255,14.192852199999999,27.082887900000003,-8.807013699999999,4.0512529,-21.7492717,-5.4457359,4.3036031,13.9343523,-13.760356,8.6721903,2.5163309,-1.2583397
20,17,Cl,8.570281600000001,-0.8138729,36.965902573,18.890656200000002,21.4816846,-7.8491172,-6.961350400000001,-18.7994781,-9.6013275,10.3108617,8.3863819,-35.542,7.7954652,3.034193,-1.5664479
19,18,Ar,8.527140600000001,-6.1474775,36.966776301,24.0430262,16.679411100000003,-6.7867364,-17.8116089,-7.572509,-21.6018153,8.787454599999998,8.7146419,-56.118,8.7766598,-1.6435378,4.6304129000000005
18,19,K,8.339848,-11.6641314,36.97337589,29.7699441,10.3646118,-6.221777,-28.580000000000002,-2.5671643,-26.4203532,15.4543377,1.8576301000000002,,8.9578945,-1.5578533,5.2862867
17,20,Ca,8.0034567,-16.916,36.985897849,34.469,4.6667233,-6.1766909,-38.306,9.8065013,-37.358000000000004,14.7562218,3.0078594,,8.7476304,-7.0520000000000005,10.888625099999999
16,21,Sc,7.525,-21.39,37.004058,39.463,-0.375,-6.1850000000000005,,13.908,,20.442,-2.942,,9.301,-6.246,10.647
26,12,Mg,6.928,17.604,38.03658,2.449,,-21.192,38.244,,16.193,2.209,26.349,60.935,-1.118,1.107,
25,13,Al,7.37,20.64,38.017681,5.623,44.011,-17.635,31.091,-43.953,14.97,1.411,19.031,46.268,6.8,5.694,-15.715
24,14,Si,7.8928297,10.451265600000001,37.995523,7.8768099000000005,39.1284007,-14.9185391,22.6909168,-39.6707477,6.7543952,5.6701051,21.268834599999998,30.5445277,0.5901236,0.9174858,-14.1636829
23,15,P,8.147274900000001,12.2396512,37.984303105,10.5131562,35.1498912,-14.0488619,15.1765512,-31.7201002,4.2035431,3.6968704,15.3390237,14.1791949,8.5253676,4.6339706,-8.7514329
22,16,S,8.448782900000001,2.9369,37.9711633,12.3397111,29.003032700000002,-9.294447700000001,7.8536109,-27.578674900000003,-3.1709823000000004,8.0361081,15.154174600000001,-4.8027125999999996,4.1006358,2.8606485,-6.8233336
21,17,Cl,8.5054817,4.9167109,37.968010408,16.418744,24.1250133,-7.674330200000001,-0.9973561999999999,-18.0910746,-6.9217552,6.1078823,10.1906611,-25.549,11.576832000000001,3.9121491,0.7060955
20,18,Ar,8.6142807,-5.9140671000000005,37.962732102,20.6259206,18.628628000000003,-7.2080532,-12.6563234,-15.1073719,-17.9859435,11.838466,10.242246100000001,-46.085,5.5179883,-0.83724,-0.2222147
19,19,K,8.4380593,-6.7422563,37.969081114,27.5262142,13.856693799999999,-6.7855897999999994,-24.551000000000002,-4.328179,-23.7360078,12.0718765,5.1420519,,12.1415896,-0.8894158,5.859174100000001
18,20,Ca,8.240043400000001,-17.809,37.976319223,31.7499733,6.4049032,-6.105126500000001,-33.428,1.6002044000000002,-33.910000000000004,16.9937515,4.547273100000001,,6.0694853,-6.0215549,6.6351876
17,21,Sc,7.751,-15.619,37.995438,36.542,1.41,-5.454,,13.262,-37.491,16.101,-1.598,,12.912,-4.5760000000000005,12.57
16,22,Ti,7.319,,38.012206,,-3.243,-5.945,,17.217,,21.871000000000002,-0.301,,5.93,-10.866,11.826
27,12,Mg,6.734,21.286,39.045921,1.579,,,40.455,,18.234,-0.63,26.419,65.938,0.352,1.737,
26,13,Al,7.26,19.169,39.02307,4.463,46.222,-18.767,34.264,-47.705,17.589,3.051,19.873,51.29,3.989,5.973,-18.767
25,14,Si,7.7309793,15.0949874,39.002491,7.2507722,40.469067900000006,-15.74435,25.4830235,-39.043,8.8705985,1.5806672000000002,21.438,35.562547200000004,3.2215944,1.2340227,-12.413405500000001
24,15,P,8.0979701,10.388036099999999,38.986285865,9.9212594,37.1621421,-14.9758218,17.0255823,-36.533,6.0152622000000004,6.2243889,15.8933076,21.032559700000004,4.507683500000001,4.5255449,-13.0786177
23,16,S,8.344269800000001,6.6375463,38.97513385,12.4088819,31.1691017,-11.1961074,10.0795237,-26.2813436,-1.4358738000000002,4.3727738,15.830078,4.120034899999999,6.544147700000001,1.9524282000000002,-5.080144199999999
22,17,Cl,8.4944032,3.4419774000000003,38.968008151,14.181302400000002,25.3821477,-7.3673246,4.0069774,-22.4676243,-3.1567093,8.0734201,10.2279731,-15.6274918,7.807015000000001,5.7279781000000005,-3.9027711
21,18,Ar,8.5625988,0.5650000000000001,38.964313037,18.4371527,20.9237116,-6.8209013999999994,-5.9594888,-13.6699505,-12.5127537,6.5986867,10.7330505,-35.742,9.2301634,1.1438678,3.0683477
20,19,K,8.5570258,-6.5244888,38.96370648482,25.1496302,16.6235858,-7.2185796,-19.6344692,-11.2980505,-19.8200101,13.077753699999999,6.381339700000001,-56.377,7.8512905,1.2884021,1.3612148
19,20,Ca,8.3696711,-13.109980400000001,38.970710811,30.2892728,10.9129699,-6.660333700000001,-29.783,0.1431491,-31.105,13.2955213,5.770918,,8.2283017,-5.0014698,8.5952379
18,21,Sc,8.013457500000001,-16.673000000000002,38.984784953,34.095,3.950467,-5.424748800000001,-36.743,7.3390623999999995,-33.614,17.995,-0.5968061,,9.6741507,-2.8575049,8.8908576
17,22,Ti,7.566,-20.07,39.002684,38.812,-1.058,-5.115,,17.27,,16.941,0.539,,9.431000000000001,-8.786,14.598
28,12,Mg,6.598,20.729,40.053194,0.667,,,43.883,,19.989,1.297,27.716,72.388,-1.645,1.28,
27,13,Al,7.097,23.154,40.03094,3.7920000000000003,47.663000000000004,-19.507,36.96,-48.445,18.429000000000002,0.74,21.244,56.378,5.457,5.473,-18.667
26,14,Si,7.6558247,13.8060653,40.006083641,6.305461,42.985,-17.1381994,28.5047256,-44.397,10.3701935,4.7247939,23.112000000000002,40.706776,-0.092,0.7213668,-16.898199400000003
25,15,P,7.9814177,14.6986603,39.991262221,9.6602607,39.187,-16.5144895,19.4186291,-36.918,6.952164300000001,3.4358718,17.7485122,25.3963075,6.7419168,3.2963780000000003,-12.3023515
24,16,S,8.329325500000001,4.719968700000001,39.975482561,12.119269899999999,33.2454927,-12.8266402,12.202050300000002,-32.4471725,-1.1089498000000002,7.7464960000000005,17.3521851,12.0085523,2.4945221,1.0222179,-10.619935400000001
23,17,Cl,8.427766,7.482081600000001,39.970415466,13.9023386,27.514195800000003,-9.7316896,5.9776784,-22.0721539,-2.3869411,5.8289184999999994,11.684117800000001,-7.0344658,10.0142045,4.2026627,-2.9154038
22,18,Ar,8.595259400000002,-1.5044031,39.96238312204,16.4677093,22.7566262,-6.800675,-0.1934981,-19.1661994,-9.304022699999999,9.8690227,12.5286531,-26.0464613,5.4690229,1.5857069,-2.4970719
21,19,K,8.538090700000001,1.3109051,39.963998165,20.8773733,18.3153231,-6.4384047,-13.012144200000002,-11.024249900000001,-14.3241083,7.7996195,7.5822725,-46.005,11.8901369,2.2762372,3.8724571
20,20,Ca,8.5513046,-14.323049300000001,39.96259085,28.9305347,14.7095173,-7.0397755,-25.852963199999998,-8.893177600000001,-28.7449938,15.6350134,8.328177600000002,,4.6651647999999994,-5.1821455,1.7476791
19,21,Sc,8.173669700000001,-11.5299139,39.977967275,32.417,6.3005351,-5.5310869,-32.993,5.9948717,-31.095000000000002,14.4219445,0.5296171000000001,,12.245957700000002,-2.5232275,9.9232508
18,22,Ti,7.8658632,-21.463,39.990345146,36.506,1.5128775,-4.9671884,,11.000296800000001,-39.635,19.565,2.1096836,,5.9670000000000005,-7.909,9.789033400000001
17,23,V,7.3100000000000005,,40.013387,,-2.141,-6.105,,19.354,,18.172,-2.681,,11.811,-7.836,14.336
28,13,Al,6.98,21.39,41.037134,3.0420000000000003,49.965,-20.969,39.57,,20.852,2.302,22.249,61.897,2.5260000000000002,5.38,-21.669
27,14,Si,7.482,18.18,41.014171,5.263,44.153,-17.436,32.209,-43.639,13.268,0.538,22.909,46.268,2.4210000000000003,1.595,-15.227
26,15,P,7.9065513,14.0288125,40.994654,8.347768,41.047000000000004,-17.2142477,22.3274241,-41.089,9.786764100000001,4.9118962,17.9356145,30.5797813,3.4106877,4.0545868,-15.803
25,16,S,8.2296358,8.298611600000001,40.979593451,11.9885444,35.9068739,-14.861983700000001,14.058929599999999,-31.964427,0.47792039999999997,4.2420484,18.1583617,16.1293282,4.4768627,0.47704,-9.1918787
24,17,Cl,8.4129593,5.760318000000001,40.970684525,13.649609700000001,29.1104981,-10.7360951,8.2523572,-26.4569733,-0.33860969999999996,7.820691200000001,11.758313000000001,1.3351684000000001,6.566287099999999,4.4180795,-7.0392247
23,18,Ar,8.534373299999999,2.4920392000000002,40.96450057,15.9679503,24.482779999999998,-8.595999599999999,2.0703986,-17.518631000000003,-7.6033308,6.0989277,12.7986622,-17.369971000000003,7.443515400000001,1.5946615,-0.5598915
22,19,K,8.5760731,-0.42164060000000003,40.96182525611,17.894989600000002,20.337273,-6.222912999999999,-6.9171888,-15.290701499999999,-8.784464900000001,10.09537,7.8086199,-35.87,8.3934536,4.0193331,-0.1150307
21,20,Ca,8.5467075,-6.4955482,40.962277905,23.9978377,16.473654900000003,-6.6151452,-19.440369500000003,-7.3869792,-22.6858736,8.3628243,8.891382400000001,-55.548,9.3800942,-1.4730933,5.223320800000001
20,21,Sc,8.3691979,-12.9448214,40.969251163,30.6122699,9.4131067,-6.2670746,-28.953,-2.3958342,-27.720239300000003,16.1903254,1.0849291,,9.3511536,-1.7198014000000001,5.8048019
19,22,Ti,8.0343889,-16.008,40.983148,34.34,2.9927742,-4.9863846,-36.108000000000004,11.8598922,-36.239,14.775418,2.4631571,,9.1859946,-6.5840000000000005,12.007366900000001
18,23,V,7.625,-20.1,41.000333,38.403,0.095,-5.8950000000000005,,13.545,,20.231,-2.015,,8.521,-6.196,10.206
29,13,Al,6.829,25.150000000000002,42.045078,2.973,,-22.34,40.898,,20.718,0.672,23.399,66.822,3.1510000000000002,4.079,-22.34
28,14,Si,7.41,15.748000000000001,42.018078,4.97,47.288000000000004,-19.659,34.477000000000004,-48.550000000000004,13.748000000000001,4.432,25.04,51.262,-1.27,0.214,-20.289
27,15,P,7.7659122,18.7295899,42.00117214,6.9116045999999995,42.307,-17.803,25.923612000000002,-40.787,12.029104100000001,1.9997084,19.397000000000002,36.113872900000004,6.1357732,3.6355456,-14.751
26,16,S,8.1932275,7.194022100000001,41.9810651,10.942534100000001,37.882565799999995,-15.8923645,16.7849303,-38.127,1.5981258,6.700485800000001,19.946951300000002,20.9095456,1.2122487000000002,0.0009431000000000001,-14.3116973
25,17,Cl,8.3458864,9.5909082,41.973342,13.4165875,31.2705226,-12.6351209,10.1902609,-27.1409734,0.1644217,5.595896300000001,13.112160900000001,7.2892332,8.7168869,3.1949571000000003,-6.410732
24,18,Ar,8.555614100000001,0.5993527000000001,41.963045737,15.5254142,26.1627705,-9.986378,4.1246153,-22.7030691,-6.9344472999999995,9.426486500000001,14.404457500000001,-9.3183247,3.8459474,0.2415951,-5.6136042
23,19,K,8.5512571,3.5252626,41.962402305,17.62917,22.0421544,-7.6488307,-2.9010278,-15.0038102,-7.9554406,7.5338,9.2434922,-27.402,10.7286763,3.0842198,0.4245894
22,20,Ca,8.6165646,-6.4262904,41.95861778,19.8435275,18.0853354,-6.257382400000001,-13.44294,-12.768754800000002,-17.976251400000002,11.4807032,10.2767156,-45.607,5.699010599999999,0.1239573,0.3413042
21,21,Sc,8.4449303,-7.0166496,41.965516686,27.740286400000002,13.163448200000001,-5.7451591,-24.501,-3.8504252,-24.494782400000002,11.549961,4.272065899999999,,13.436206,0.025758800000000002,7.3325946
20,22,Ti,8.25924,-17.485,41.973049369,32.2535507,4.8358935,-5.470765800000001,-32.164,2.7445838,-33.486000000000004,17.4781327,3.7509644,,6.1298064000000005,-6.0675719,7.8247555
19,23,V,7.824,-14.679,41.99182,36.232,1.674,-5.795,,13.734,-36.101,16.001,-0.789,,12.085,-5.256,12.200000000000001
18,24,Cr,7.456,,42.007579,,-1.475,-6.735,,15.468,,21.421,0.539,,5.301,-10.646,10.206
30,13,Al,6.712,23.94,43.05182,2.463,,-24.132,43.230000000000004,,23.359,1.7910000000000001,,72.43,0.881,3.584,
29,14,Si,7.251,19.289,43.026119,5.013,48.348,-20.871,36.525,,15.167,0.581,24.949,56.34,0.45,0.373,-19.574
28,15,P,7.681,17.236,43.005411,6.123,44.128,-18.874,29.2,-44.239000000000004,14.607000000000001,4.123,19.088,41.616,2.551,4.237,-18.134
27,16,S,8.0638276,11.96405,42.986907635,9.329516700000001,39.974000000000004,-16.940728200000002,19.8143502,-36.324,4.564991200000001,2.6290309,20.5762738,26.213412100000003,3.495114,0.8077840000000001,-12.2159343
26,17,Cl,8.3238672,7.8503001999999995,42.9740637,12.994955000000001,33.7576851,-13.809790800000002,12.4158838,-32.540323799999996,2.1918495,7.3990588,13.810733899999999,12.0286394,5.5598765000000006,3.5423944,-10.373919
25,18,Ar,8.4882382,4.5655836,42.965636056,15.0849373,27.579172900000003,-11.272054899999999,6.3990618999999995,-21.661034100000002,-5.0590981,5.6584507,14.467012,-2.6942199000000002,6.0081879,0.4120629,-3.5255589
24,19,K,8.5762204,1.8334783000000001,42.960734701,17.1584817,23.8461449,-9.2000923,-0.38724450000000005,-19.0325956,-6.0994191,9.6246817,9.441687400000001,-18.659036800000003,7.2029223,3.3285608000000004,-3.3711737
23,20,Ca,8.600665300000001,-2.2207227,42.958766381,19.413600600000002,19.9193052,-7.5915931,-9.093281800000002,-11.2751657,-14.359187700000001,7.9328974,10.675813,-36.439,7.8614831999999994,-0.0093206,2.2774296
22,21,Sc,8.5308265,-6.8725591,42.961150425,23.688426,15.2065432,-4.8058704,-18.2717923,-8.4550902,-19.1551147,12.138465,4.9298277,-53.558,9.6605653,3.5223072,2.9937491
21,22,Ti,8.3528054,-11.3992333,42.96852842,29.7606883,8.7556248,-4.4578001,-27.345,1.9427314,-29.767,12.2825556,4.4835590000000005,,10.0375762,-3.928183,11.1772133
20,23,V,8.0695129,-15.946,42.980766,34.369,3.8519397,-6.1685473,-35.286,6.9156743,-33.047000000000004,18.368000000000002,0.1009753,,8.4919881,-4.0588637,8.2533972
19,24,Cr,7.68,-19.34,42.997885,38.523,0.851,-6.8950000000000005,,15.845,,17.101,1.639,,8.431000000000001,-9.576,12.67
30,14,Si,7.156000000000001,18.2,44.031466,3.672,,-22.664,38.515,,16.199,3.091,26.249,61.984,-1.969,-0.41600000000000004,-23.143
29,15,P,7.5520000000000005,20.314,44.011927,6.125,45.458,-20.135,31.589000000000002,-44.449,15.234,2.0020000000000002,20.509,46.891,4.981,2.774,-17.834
28,16,S,7.9960154,11.274737300000002,43.990118846,7.7091246,40.622,-17.296028,23.4690241,-40.823,6.8839563,5.080093700000001,21.534,32.2644936,0.4147287,0.6395865000000001,-16.758
27,17,Cl,8.234478800000002,12.1942869,43.978014918,11.7898398,36.148757700000004,-14.764700000000001,15.3025243,-32.808,3.4595192000000003,4.390781,15.572484000000001,17.3370615,7.8695813,3.3936618,-9.8528037
26,18,Ar,8.4938411,3.1082375000000004,43.964923814,14.3932184,29.6134547,-12.2603265,8.7954694,-27.7667708,-4.1691840000000004,8.7347676,15.8027209,4.8753258,2.8693165,-0.5020135,-8.0182781
25,19,K,8.546702300000002,5.6872319,43.961586984,16.902103200000003,25.527670099999998,-10.6485952,2.0345372,-18.910958299999997,-5.4439432,7.277421500000001,11.060658100000001,-11.9734187,9.351987300000001,2.150067,-2.827904
24,20,Ca,8.6581769,-3.6526948000000004,43.955481489,19.064072499999998,21.6239938,-8.8537456,-3.9201436,-16.7478901,-13.3518979,11.1311752,12.1823064,-28.0468312,4.264108,-1.0451257,-2.7548179
23,21,Sc,8.557380499999999,-0.2674488,43.959402818,21.8376681,17.371946400000002,-6.705454,-14.0079559,-8.5296117,-16.571762200000002,9.6992031,6.6961334,-45.276,11.4420654,2.1859284,3.3899160000000004
22,22,Ti,8.5335215,-13.7405071,43.959689936,28.586869,13.579235,-5.1271001,-24.1266876,-6.4286845999999995,-27.703546600000003,16.304313399999998,8.649407300000002,,5.2832238,-4.042171,3.2357242000000004
21,23,V,8.2034567,-10.3861805,43.974440977,32.331,6.265018200000001,-5.7096423000000005,-31.268,5.0910998,-29.909,13.9630395,1.7814593,,12.0070813,-3.2464852,10.4806831
20,24,Cr,7.949626500000001,-20.882,43.985591,36.624,2.8954874,-6.8533757,,8.6047212,-38.863,19.523,2.794512,,4.909,-8.868,7.9220423
19,25,Mn,7.457,,44.008009,,-0.502,-7.434,,18.088,,17.981,-2.141,,11.111,-8.086,12.797
31,14,Si,7.0040000000000004,21.13,45.039818,3.382,,-23.435,40.431,,17.909,0.291,,66.861,-0.46900000000000003,-0.036000000000000004,
30,15,P,7.456,19.301000000000002,45.017134,5.223,46.888,-21.055,34.223,,17.093,3.221,20.639,52.576,2.341,3.985,-20.383
29,16,S,7.867,14.922,44.996414,7.288,42.248,-18.965,26.43,-39.94,9.067,2.207,21.739,37.472,2.33,0.432,-14.533
28,17,Cl,8.1815991,11.5082568,44.980394353,10.2456701,37.881,-15.7076929,18.353099,-36.661,6.3393977999999995,5.8548891,16.3472794,22.8097768,4.6437231,4.2392584,-13.7079845
27,18,Ar,8.4199526,6.8448422,44.968039731,13.9036267,32.1532829,-13.187137199999999,11.041429,-27.8555362,-2.0606216,5.168859,16.5807989,9.239464900000002,5.0995163,-0.0749763,-6.4866513999999995
26,19,K,8.5546747,4.1965868,44.960691491,16.1828853,27.0340751,-11.7333678,4.4566778000000005,-23.4256411,-3.2182318000000003,8.9054638,11.231354300000001,-4.729202,6.1049743,2.6710897,-6.1374715
25,20,Ca,8.630546700000002,0.260091,44.95618627,18.5459938,23.3803617,-10.1696366,-1.8019641,-15.427941,-11.0675134,7.414818599999999,12.3197036,-21.297428800000002,6.4739711,-0.9261444000000001,-0.74315