N,Z,element,be_per_a,beta_decay_energy,atomic_mass,s2n,s2p,qa,q2b,qep,qbn,s1n,s1p,q4b,qda,qpa,qna
75,51,Sb,8.4403136,3.6710321,125.907253158,14.9167029,20.103299200000002,-5.2466906,1.5173609,-13.2697988,-5.4426597,6.2093597,7.788449300000001,-2.0424526000000003,12.5491469,6.2856023,2.6823003
74,52,Te,8.4632397,-2.1536712000000002,125.903312144,15.6826621,16.4106344,-2.5491306,-0.9177807,-11.459481400000001,-9.2994618,9.113691800000002,9.0980448,-7.3942544,8.2657081,4.0227781,3.3969171
73,53,I,8.4399379,1.2358904,125.905624205,16.6885778,14.869369800000001,-2.0012077,-3.5598135,-6.9443736000000005,-8.782453799999999,7.145790600000001,6.1776736,-12.9370208,13.3244523,6.1245364,6.9587962
72,54,Xe,8.4435375,-4.7957039,125.904297422,17.6216181,13.2001873,-1.2580209,-6.4764736,-7.413564099999999,-13.1279627,10.0183442,7.5993341,-18.325821800000003,8.9289749,3.6602562,5.670993
71,55,Cs,8.3992673,-1.6807697000000001,125.909445821,18.7522587,11.5640703,-0.6963170000000001,-9.3772073,-2.8036301,-12.7530251,8.3322587,4.4402933,-24.027,14.0275289,5.76163,9.2383071
70,56,Ba,8.3797187,-7.6964376,125.911250202,19.722763800000003,9.580450500000001,0.260159,-11.8493481,-2.7595236,-16.9817389,11.0722554,5.8691421,-29.29,9.7819542,3.2377985,8.224746600000001
69,57,La,8.312426799999999,-4.1529106,125.919512667,20.8574947,7.8103574,0.7463771,-14.65,1.8272955,-16.387,9.2853014,2.5934708,-35.224000000000004,14.827117000000001,5.5455427,11.716583
68,58,Ce,8.2732581,-10.497,125.923971,22.047,6.3087216,1.3634706,-17.44,1.5594397,-20.822,12.234,4.350043800000001,,10.148859,2.695,10.4808002
67,59,Pr,8.184000000000001,-6.9430000000000005,125.93524,23.315,4.643,1.795,-20.574,6.147,-20.325,10.325000000000001,0.9550000000000001,,15.303,4.827,13.974
66,60,Nd,8.122,-13.631,125.942694,24.693,3.0420000000000003,2.069,,5.989,,13.382,2.599,,10.482000000000001,1.714,12.552
65,61,Pm,8.008000000000001,,125.957327,,1.177,2.605,,11.032,,,-1.031,,15.791,,16.127
82,45,Rh,8.06,13.49,126.963789,8.043000000000001,,,24.919,,9.988,4.602,,43.15,5.3500000000000005,4.723,
81,46,Pd,8.16,11.429,126.949307,9.403,33.429,-13.095,21.521,,5.429,3.501,17.309,36.249,5.32,2.354,-7.984
80,47,Ag,8.244,10.092,126.937037,10.272,31.398,-11.884,18.23,-28.738,5.535,6.001,14.148,28.049,6.021,4.614,-8.293000000000001
79,48,Cd,8.3168971,8.1386978,126.926203291,11.5357451,29.36,-10.7363665,14.728378800000002,-24.240000000000002,0.9968599,4.556790100000001,15.31,19.5392978,6.489547,2.3528067999999998,-4.695
78,49,In,8.374821200000001,6.589681,126.91746604,12.6102251,26.9378999,-9.736232,9.8183971,-23.448,1.0639205999999999,7.1418378,11.913140799999999,12.1033199,7.1790003,4.6835948,-5.003544
77,50,Sn,8.420548199999999,3.228716,126.910391726,13.718556699999999,24.6994299,-8.4803104,4.810919,-18.5028219,-5.1477604,5.5257604,12.9491719,4.8513053,7.653537,2.2622557000000003,-1.1237392
76,51,Sb,8.439811,1.582203,126.906925557,14.5858361,20.8639282,-5.6941761,2.2849229,-16.1778879,-4.7054443,8.3764764,7.9721294,-0.45826690000000003,9.9061705,6.3972367000000006,-0.1841133
75,52,Te,8.446109,0.7027199000000001,126.905226993,15.4013391,16.9647816,-2.8907301000000003,0.0403864,-9.5543324,-8.4413184,6.2876472,9.1763324,-5.4625418,10.6854041,4.2026271,5.5973808
74,53,I,8.445482,-0.6623336000000001,126.904472592,16.289829,15.306065,-2.1852421,-2.7431898,-9.8790523,-7.9081479,9.1440384,6.2080202,-11.0871003,10.749384200000001,6.4049800999999995,4.282254200000001
73,54,Xe,8.4341066,-2.0808562000000004,126.905183636,17.2641586,13.8770314,-1.5748214,-5.5029282,-5.5456866,-12.0415183,7.2458143,7.6993578,-16.3415394,11.2259477,3.9077268,7.8496607
72,55,Cs,8.4115617,-3.4220719,126.907417527,18.2929208,11.9819452,-0.7223549,-8.3439105,-5.618501500000001,-11.6414317,9.960662000000001,4.3826111,-21.697,11.670140799999999,6.2914331,6.770930000000001
71,56,Ba,8.378456,-4.9218386,126.911091272,19.2916152,10.196536400000001,0.0053868,-10.838611199999999,-0.9605392,-15.9157974,8.219359800000001,5.7562431,-26.908,11.9825943,3.7871606000000004,10.495852000000001
70,57,La,8.333541199999999,-5.916772700000001,126.916375083,20.2792602,8.3843163,0.7226241999999999,-13.353,-0.8344045999999999,-15.1468694,10.9939588,2.5151743,-32.586,12.4836665,6.057724400000001,9.491346100000001
69,58,Ce,8.2807922,-7.436,126.922727,21.464000000000002,6.888310000000001,1.2507035000000002,-16.069,3.4015984,-19.727,9.2300967,4.2948392,,12.4909556,3.1433285,12.756844
68,59,Pr,8.216,-8.633000000000001,126.93071,22.616,5.362,1.683,-19.233,3.141,-19.234,12.291,1.012,,12.825000000000001,5.237,11.362
67,60,Nd,8.142,-10.6,126.939978,23.983,3.83,1.951,,7.621,-24.232,10.601,2.876,,12.871,2.105,14.652000000000001
66,61,Pm,8.052,,126.951358,,1.817,2.495,,7.7250000000000005,,13.631,-0.781,,13.471,4.384,13.488
82,46,Pd,8.137,10.32,127.952345,8.743,,-13.226,22.848,,6.188,5.2410000000000005,17.949,38.971000000000004,3.521,2.303,-10.374
81,47,Ag,8.211,12.528,127.941266,10.133000000000001,32.088,-12.425,19.48,-28.269000000000002,5.96,4.132,14.779,29.919,7.791,4.113,-7.234
80,48,Cd,8.3032367,6.9518716000000005,127.927816778,11.1251541,30.026,-11.263,16.1231847,-27.307000000000002,1.5703337,6.5683641,15.878,21.7555485,4.1930000000000005,2.1457492000000005,-7.632000000000001
79,49,In,8.3514361,9.171313099999999,127.920353637,12.5233758,28.048000000000002,-10.3850819,10.439735,-22.829,1.2081431,5.3815379000000005,12.7378887,13.547913500000002,8.7764174,4.0220286000000005,-4.0237755
78,50,Sn,8.4169749,1.2684219,127.910507828,13.4889304,25.6836449,-9.086909200000001,5.6323638,-21.909201799999998,-4.7344539999999995,7.96317,13.770504,6.4991045000000005,5.1587543,1.9149332,-4.3669375
77,51,Sb,8.4207724,4.3639418999999995,127.909146121,14.3793523,21.398416700000002,-6.1869891,3.1081785,-15.0389259,-4.4206729,6.0028758,8.4492449,1.301921,12.0960909,6.1278608000000006,1.4288583000000001
76,52,Te,8.4487536,-1.2557634,127.904461237,15.072262,17.556600200000002,-3.187234,0.8667406999999999,-12.8131868,-8.0818949,8.7846148,9.5844707,-3.624638,8.110149,4.1253554999999995,2.546266
75,53,I,8.4328309,2.1225041,127.905809355,15.9701698,15.922836799999999,-2.5438773,-1.8062575,-8.3287073,-7.488465000000001,6.826131500000001,6.7465044,-9.1125913,13.0369445,6.147818900000001,6.1634659
74,54,Xe,8.443300800000001,-3.9287617,127.90353075341,16.856783500000002,14.374308800000001,-1.7613085000000002,-4.4913787,-8.8690085,-11.6918254,9.6109692,8.1662886,-14.326609000000001,8.7607692,3.8395448,4.8076618
73,55,Cs,8.406495300000001,-0.5626171000000001,127.907748452,17.7237258,12.5992183,-0.9921338,-7.306333700000001,-4.2375269,-11.185135700000002,7.7630638,4.8998605,-19.6010091,13.9254213,6.1316432999999995,8.550653500000001
72,56,Ba,8.3959878,-6.7437167,127.908352446,18.841878400000002,10.800710800000001,-0.12666650000000002,-9.8352303,-4.3372434,-15.5443572,10.6225186,6.4180997,-24.839000000000002,9.6923344,3.5846419000000003,7.4766074
71,57,La,8.337190399999999,-3.0915136000000003,127.915592123,19.7945993,8.8526981,0.6907057,-12.294675300000002,0.32561700000000005,-14.717413200000001,8.8006405,3.0964549000000003,-30.406000000000002,14.7552814,5.9075922,11.1107056
70,58,Ce,8.3069259,-9.2031617,127.918911,20.8559963,7.4419542000000005,1.1309445,-15.004,-0.0049413,-19.062,11.6258996,4.9267799000000005,-36.384,10.1503574,3.0896223000000003,9.781452799999999
69,59,Pr,8.2289141,-5.8,127.928791,22.150000000000002,5.93523,1.5029377,-18.111,4.2763818,-18.492,9.859,1.6403908,,15.2006086,5.191,13.075130999999999
68,60,Nd,8.177,-12.311,127.935018,23.293,4.288,1.961,-21.381,4.16,-23.292,12.692,3.2760000000000002,,10.504,2.404,11.774000000000001
67,61,Pm,8.075,-9.07,127.948234,24.613,2.474,2.5060000000000002,,9.035,,10.981,-0.401,,15.871,4.714,15.497
66,62,Sm,7.998,,127.957971,,0.34800000000000003,3.255,,9.471,,,1.129,,11.311,,14.566
83,46,Pd,8.086,13.99,128.959334,6.803,,-11.935,25.242,,8.759,1.561,17.829,42.71,6.561,4.184,
82,47,Ag,8.188,11.252,128.944315,9.363,32.718,-12.465,20.965,-31.819,7.297,5.231,14.769,32.759,6.061,4.784,-9.024000000000001
81,48,Cd,8.2695311,9.712747100000001,128.932235597,10.5235788,30.48,-11.587,17.4684551,-26.021,2.9966569,3.9552147,15.701,23.8827425,6.238,2.462,-5.686
80,49,In,8.338759,7.7557081,128.921808534,12.0976281,28.763,-10.7398656,11.7944954,-25.413,2.4552229000000003,6.7160902,12.885614799999999,15.6722874,6.6171173,4.2848935,-6.468
79,50,Sn,8.392816100000001,4.0387874,128.91348244,13.2636551,26.4273399,-9.6674226,6.4142874,-20.6413228,-4.0320632000000005,5.3004851,13.6894512,8.1054729,7.000107,2.0828354,-2.6884676
78,51,Sb,8.418059800000002,2.3755,128.909146623,14.073726500000001,22.327429499999997,-6.6419923,3.8777919,-17.7282386,-3.7069087,8.0708506,8.5569255,2.8696658000000004,9.551000700000001,6.2498065,-1.173605
77,52,Te,8.4304098,1.5022919,128.906596419,14.8670235,18.1132485,-3.5361428000000004,1.6911856,-10.932425499999999,-7.3381720999999995,6.0824087,9.664003600000001,-1.9440184999999999,10.404216700000001,4.2523064999999995,4.656653500000001
76,53,I,8.435990799999999,0.1888936,128.904983643,15.6665955,16.386824400000002,-2.6769981,-1.0081261,-11.1662955,-6.7179599,8.840464,6.802353600000001,-7.183635100000001,10.4841277,6.4210467,3.5323616
75,54,Xe,8.4313904,-1.1970197,128.90478085742,16.5178227,14.993515100000002,-2.0991917,-3.6352041,-6.9912473,-10.835615200000001,6.9068535,8.2470107,-12.408565699999999,10.997954,4.0784819,7.0145001
74,55,Cs,8.4160465,-2.4381843,128.90606591,17.401659199999997,13.0937754,-1.087942,-6.175509,-7.0499909,-10.2012125,9.6385955,4.9274868,-17.7254843,11.5326402,6.5113921,6.057848600000001
73,56,Ba,8.3910811,-3.7373247000000003,128.908683409,18.3855468,11.317924699999999,-0.28642090000000003,-8.773361699999999,-2.4893025,-14.5067449,7.7630282,6.4180641,-22.686,11.889968300000001,4.1538724,9.7319234
72,57,La,8.3560449,-5.036037,128.912695592,19.570060700000003,9.6614562,0.34128539999999996,-11.5499753,-2.6807395,-13.860933800000002,10.7694202,3.2433565,-28.144000000000002,12.205221,6.2104273999999995,8.673544099999999
71,58,Ce,8.3109411,-6.5139382999999995,128.918102,20.450796300000004,8.0474911,0.9565560000000001,-13.913,1.7926805,-18.0280585,8.824896800000001,4.9510362,-33.958,12.3194195,3.5500268999999998,12.0288114
70,59,Pr,8.254380800000002,-7.399,128.925095,21.373,6.455391400000001,1.5610107,-16.594,1.5629021,-17.315,11.5141203,1.5286115,,12.9165851,5.911054600000001,10.846312099999999
69,60,Nd,8.191,-9.195,128.933038,22.607,4.974,1.858,-20.045,5.87,-22.227,9.916,3.333,,12.879,2.813,14.092
68,61,Pm,8.114,-10.85,128.942909,24.013,3.215,2.465,,5.862,-22.101,13.032,-0.061,,13.441,5.064,12.790000000000001
67,62,Sm,8.023,,128.954557,,0.998,3.315,,10.911,,11.251,1.399,,13.691,2.2840000000000003,16.697
83,47,Ag,8.142,15.22,129.950727,7.33,33.135,-11.123000000000001,24.009,,9.153,2.099,15.307,36.388,9.203,6.187,-6.521
82,48,Cd,8.2525868,8.7889322,129.934387563,10.0219886,31.305,-11.752,19.014619200000002,-30.526,3.6459732,6.0667739,16.536,26.2353621,4.304,2.396,-8.251
81,49,In,8.314176,10.225687,129.924952257,11.8590492,29.774,-11.611,12.3791571,-25.325,2.6127491000000003,5.142959,14.0733591,17.0296583,8.0425224,3.6987245,-5.61
80,50,Sn,8.386816999999999,2.1534702,129.913974531,12.913423000000002,27.4719138,-10.301405500000001,7.220743000000001,-24.2990461,-3.5741506,7.6129379,14.586299,9.7482577,4.768707,1.6117353,-5.7446155
79,51,Sb,8.3973641,5.0672728,129.911662686,13.7984713,22.6735123,-6.9012257,4.6505012,-16.739769199999998,-3.3521207,5.7276207,8.984061100000002,4.6140677,11.7865499,6.0479462,0.2406122
78,52,Te,8.430325100000001,-0.41677159999999996,129.906222745,14.5018022,18.569472,-3.76274,2.5275147000000002,-14.0513339,-6.9171016000000005,8.4193935,10.012546500000001,-0.0961833,7.987699,4.2093894,1.7630204
77,53,I,8.4211011,2.9442864,129.906670168,15.340794,16.8842785,-2.9679684,-0.0364335,-9.5957749,-6.3114363,6.50033,7.220274900000001,-5.3088138,12.7684125,6.2083639999999995,5.408508
76,54,Xe,8.4377314,-2.9807199,129.903509346,16.1625762,15.464623,-2.2412226,-2.623698,-10.1645612,-10.4527424,9.2557227,8.6622693,-10.4575612,8.568362800000001,3.9667976,4.0464246
75,55,Cs,8.4087848,0.3570219,129.906709281,17.110618,13.7396665,-1.4141739,-5.2723803,-5.6815495,-9.910206899999999,7.472022600000001,5.4926558000000005,-15.724290100000001,13.6715868,6.2851837999999995,7.7298644
74,56,Ba,8.405513000000001,-5.6294021,129.906326002,18.030257000000002,11.9741842,-0.5353053999999999,-7.8338632,-5.8496777,-14.0045534,10.2672287,7.0466974,-20.660537,9.3858033,3.8473057,6.710509
73,57,La,8.3561919,-2.2044611,129.912369413,19.144571499999998,10.2735438,0.2983928,-10.4519099,-1.4172953,-13.411188300000001,8.375151299999999,3.8554796000000002,-26.158,14.4525883,6.054636,10.259054899999999
72,58,Ce,8.3332164,-8.2474488,129.914736,20.031624,8.631699699999999,0.8220842,-12.8266738,-1.6510185,-17.7206655,11.2067272,5.3883432,-31.723,9.913332700000002,3.3372585,9.041444
71,59,Pr,8.2637565,-4.579225,129.92359,20.987337,7.1279676,1.3730954,-15.706,2.8591056,-16.872,9.473216700000002,2.1769314,-37.663000000000004,15.069267900000002,5.6679346,12.3670543
70,60,Nd,8.222513600000001,-11.127,129.928506,22.209,5.6402562,1.7994099000000001,-18.896,2.4022936,-21.488,12.293000000000001,4.1116447,,10.4453312,2.811,11.029506600000001
69,61,Pm,8.131,-7.7700000000000005,129.940451,23.392,3.717,2.4290000000000003,-21.957,7.015000000000001,-21.211000000000002,10.361,0.384,,15.772,5.305,14.72
68,62,Sm,8.065,-14.187000000000001,129.948792,24.693,1.748,3.255,,7.386,,13.441,1.809,,11.231,2.474,13.857000000000001
67,63,Eu,7.95,,129.964022,,-0.129,3.8120000000000003,,12.378,,,-1.528,,16.348,,17.443
84,47,Ag,8.102,14.462,130.956253,5.022,,-9.445,27.274,,12.296,2.924,15.309000000000001,41.231,7.841,8.504,-7.763
83,48,Cd,8.2061204,12.812608899999999,130.94072774,8.232254800000002,31.91,-10.416,22.0528184,-29.771,6.6234513,2.1654809,16.603,29.999261200000003,7.369,4.363,-5.175
82,49,In,8.2979544,9.2402095,130.926972839,11.332116599999999,30.732,-11.8,13.9570424,-29.416,4.0365294,6.1891576,14.1957428,19.418358,5.8085795,4.077931,-7.668
81,50,Sn,8.3625183,4.716832800000001,130.917053067,12.8166181,28.7203792,-10.9482956,7.9464426999999995,-23.435952399999998,-3.0502100000000003,5.2036802,14.647020200000002,11.1489961,6.281117,1.7895931,-4.3799316
80,51,Sb,8.3925525,3.2296099,130.911989339,13.4946636,23.724465000000002,-7.5264307,5.4613157,-19.363853,-2.69977,7.7670428000000005,9.138166,6.074162500000001,9.319992200000002,6.2440733,-2.1448928
79,52,Te,8.4112339,2.2317057,130.90852221,14.3487735,19.1983668,-4.1663596,3.2025533999999998,-12.367775900000002,-6.346151600000001,5.92938,10.2143058,1.4679367,10.1291697,4.2828853,3.7968104
78,53,I,8.4222977,0.9708477000000001,130.906126375,15.0781873,17.3912852,-3.1693493,0.6128468,-12.446011500000001,-5.633571,8.5778573,7.3787387,-3.6734626,10.2729639,6.415121500000001,2.8335266000000003
77,54,Xe,8.4237367,-0.3580009,130.90508412808,15.8601413,15.9866329,-2.5579940000000003,-1.7346167000000001,-8.3495864,-9.5851385,6.6044186,8.766358,-8.7051269,10.8044082,4.1885104,6.2266208
76,55,Cs,8.4150317,-1.3766158000000002,130.905468457,16.699160199999998,14.1263401,-1.4972732000000002,-4.2863094,-8.4083571,-8.870115799999999,9.2271376,5.464070800000001,-13.7549103,11.3513027,6.6690154,5.3288583
75,56,Ba,8.3985511,-2.9096936,130.906946315,17.7607287,12.5608306,-0.782991,-6.9705103,-4.087455,-13.1229021,7.4935,7.0681747999999995,-18.910918000000002,11.530898800000001,4.1168695,8.8279782
74,57,La,8.3703676,-4.0608167,130.91007,18.5883597,10.848156800000002,0.0458464,-9.4686009,-4.158481200000001,-12.4176695,10.2132084,3.8014593,-23.999,12.0024081,6.4639461,7.808910200000001
73,58,Ce,8.3333969,-5.4077842,130.914429465,19.5635801,9.225524400000001,0.6845912,-11.9404077,0.2593573,-16.6043017,8.3568529,5.3700448,-29.428,12.3259001,3.7810461,11.307109700000002
72,59,Pr,8.286143899999999,-6.5326235,130.92023496,20.669734100000003,7.5550648,1.1705368,-14.530000000000001,0.037739400000000006,-15.7757424,11.196517400000001,2.1667216,-34.837,12.697647300000002,6.0973167,9.971177299999999
71,60,Nd,8.2303045,-7.998,130.92724802,21.536,6.0584784,1.7863876,-17.488,4.3659018,-20.37,9.243119,3.8815470000000003,,12.7163325,3.4267785,13.412287200000002
70,61,Pm,8.163,-9.49,130.935834,22.733,4.575,2.348,-20.306,4.116,-20.142,12.372,0.463,,13.316,5.6240000000000006,12.207
69,62,Sm,8.085,-10.816,130.946022,24.093,2.483,3.205,,9.027000000000001,-24.839000000000002,10.652000000000001,2.1,,13.611,2.8040000000000003,15.897
68,63,Eu,7.996,,130.957634,,0.862,3.4210000000000003,,8.717,,14.022,-0.947092,,13.577,4.55,14.402000000000001
85,47,Ag,8.053,16.065,131.96307,4.6450000000000005,,-9.485,28.011,,12.74,1.721,15.949,45.235,9.041,8.344,
84,48,Cd,8.1691421,11.9461243,131.945823136,5.4904679,32.313,-8.5,26.0811243,-32.014,9.4876219,3.324987,17.004,34.7227678,6.143,6.269,-6.939
83,49,In,8.253716200000001,14.135,131.932998444,8.64766,31.092000000000002,-10.126,17.223728,-28.95,6.7817072,2.4585024,14.4887642,23.291948100000003,9.416851000000001,5.5746433,-4.8950000000000005
82,50,Sn,8.3548726,3.088728,131.917823898,12.556973000000001,30.006898200000002,-11.7332244,8.6416435,-28.623764200000004,-2.63646,7.3532928,15.8111554,12.732421,4.0707832,1.1523904,-7.7780097
81,51,Sb,8.3723452,5.5529155,131.914508013,13.492230900000001,24.306694,-7.8700808,6.06822,-18.8998834,-2.4955781000000004,5.725188,9.6596738,7.517411600000001,11.207742099999999,5.8193703999999995,-1.1539906000000002
80,52,Te,8.4084859,0.5153046000000001,131.908546713,13.9778735,19.6339225,-4.2516832,4.090777500000001,-15.2125893,-5.8167879000000005,8.0484936,10.4957565,3.246706,7.8082968,4.3052423,1.048802
79,53,I,8.4064628,3.5754729000000003,131.907993511,14.9099497,17.9957569,-3.4985657999999997,1.4491916000000002,-11.011061100000001,-5.361244800000001,6.3320924000000005,7.7814511,-1.9799241,12.360265,6.165437799999999,4.5722848
78,54,Xe,8.427622900000001,-2.1262813,131.90415508346,15.5411363,16.503957,-2.7100969,-0.8440714,-11.356924000000001,-9.294718500000002,8.9367176,9.1252183,-6.8102868,8.3680205,4.0922568,3.3723119
77,55,Cs,8.4055878,1.2822099,131.90643774,16.3955748,14.7944473,-1.8395789,-3.4291157,-6.998937,-8.545053,7.1684372000000005,6.0280892999999995,-11.9252295,13.4385882,6.4074318,7.0008851000000005
76,56,Ba,8.4093747,-4.7113256,131.905061231,17.3207628,13.1323708,-0.9992847,-5.9662154,-7.3102992,-12.7369565,9.8272629,7.668300100000001,-17.009088,9.175658499999999,3.9282021,5.9075689
75,57,La,8.3677559,-1.2548898,131.910119047,18.2388394,11.4017651,-0.2167208,-8.4961138,-2.9569745,-12.0864476,8.0256309,4.3335903,-22.096,14.244005900000001,6.2013434,9.4218747
74,58,Ce,8.3523223,-7.241224,131.911466226,19.188410700000002,9.7898534,0.47555200000000003,-11.0428726,-3.0787005,-16.239342,10.8315578,5.988394100000001,-27.329,9.8694936,3.7189085,8.238580200000001
73,59,Pr,8.291537700000001,-3.8016487000000003,131.91924,20.1946355,8.1780316,0.9730593000000001,-13.6,1.2528299,-15.5307415,8.998118,2.8079868,-33.027,14.9062565,5.924095500000001,11.7424795
72,60,Nd,8.2568104,-9.798,131.923321237,20.9722118,6.580844,1.6831944,-16.286,0.9936619,-19.727,11.7290928,4.4141224,,10.4604564,3.2118059,10.5080912
71,61,Pm,8.177,-6.488,131.93384,22.301000000000002,5.03,2.278,-19.427,5.384,-19.419,9.929,1.149,,15.679,5.611,13.792
70,62,Sm,8.122,-12.939,131.940805,23.582,3.121,2.966,,5.339,-23.747,12.931000000000001,2.6590000000000003,,11.041,2.904,12.882
69,63,Eu,8.018,,131.954696,24.830000000000002,1.309,3.594,,10.281,,10.808,-0.791,,16.21,4.994,16.626
85,48,Cd,8.121,13.55,132.952614,5.071,32.978,-8.685,26.734,,10.200000000000001,1.746,17.029,38.797000000000004,7.321,6.622,-5.763
84,49,In,8.217,13.184000000000001,132.938067,5.808,31.518,-8.245000000000001,21.233,-30.579,10.785,3.35,14.514000000000001,28.167,8.232,8.291,-6.146