N,Z,element,be_per_a,beta_decay_energy,atomic_mass,s2n,s2p,qa,q2b,qep,qbn,s1n,s1p,q4b,qda,qpa,qna
158,98,Cf,7.432,-0.146,256.093442,10.443,,5.5600000000000005,1.554,,-5.12,5.84,,-0.781,13.358,10.976,
157,99,Es,7.428,1.7,256.093599,10.946,11.784,6.227,-0.269,,-4.684,4.974,4.9110000000000005,-4.5600000000000005,16.556,12.749,11.905
156,100,Fm,7.43178,-1.969,256.091773878,11.558610000000002,10.432530000000002,7.02728,-2.3352399999999998,-6.611,-7.42757,6.38415,5.891430000000001,-8.73523,14.207030000000001,11.34033,11.83165
155,101,Md,7.421,-0.366,256.093888,12.139000000000001,9.112,7.737,-4.29,-3.922,-7.422000000000001,5.458,3.632,-13.042,17.264,12.974,14.092
154,102,No,7.416546,-3.9245360000000002,256.094280866,13.04392,7.65867,8.581520000000001,-6.39999,-3.26656,-10.19656,7.05649,4.3099799999999995,,15.08,11.513,14.12272
153,103,Lr,7.39816,-2.475451,256.098494029,14.268,6.284,8.811,-8.752,-0.38544,-10.654,6.27202,2.34961,,17.734060000000003,12.25192,16.22
152,104,Rf,7.385434,-6.276,256.101151535,15.119,5.0792399999999995,8.925709999999999,,0.12584,-13.442,8.179,3.01422,,15.061,10.511000000000001,15.50972
151,105,Db,7.3580000000000005,,256.107889,,3.951,9.336129999999999,,3.262,,7.166,1.12,,18.01,11.805,17.569
158,99,Es,7.422000000000001,0.8130000000000001,257.095979,10.828,,6.05,0.41000000000000003,,-4.155,5.855,4.926,-3.262,15.305,12.926,10.657
157,100,Fm,7.422194,-0.40302,257.095105317,11.352260000000001,10.797,6.86355,-1.6572200000000001,-5.74,-6.937,4.968100000000001,5.886,-7.27639,15.21157,11.46349,12.89503
156,101,Md,7.417582,-1.254202,257.095537977,11.99265,9.67416,7.557600000000001,-3.672,-5.4830000000000005,-6.90033,6.534,3.78273,-11.214,15.904209999999999,12.95431,12.64886
155,102,No,7.409657,-2.418,257.096884419,12.702610000000002,8.13034,8.476600000000001,-5.61917,-2.5285300000000004,-9.57066,5.64612,4.498,,16.11499,11.659,14.990860000000001
154,103,Lr,7.397,-3.201,257.09948,13.424,6.756,9.06774,-7.541,-2.08,-9.628,7.152,2.446,,16.569,12.806000000000001,14.859
153,104,Rf,7.381704,-4.34,257.102916848,14.606,5.51875,9.082780000000001,,0.75539,-12.703,6.42694,3.16914,,16.62993,10.859,16.78948
152,105,Db,7.362,,257.107576,15.529,4.319,9.20654,,1.171,,8.363,1.304,,16.588,11.872,15.982000000000001
159,99,Es,7.412,2.2760000000000002,258.09952,10.627,,5.884,1.0150000000000001,,-3.959,4.773,,-2.08,16.372,12.757,
158,100,Fm,7.418,-1.26,258.097077,11.203,11.192,6.66,-1.051,,-6.638,6.235,6.266,-5.915,13.950000000000001,11.201,11.263
157,101,Md,7.409675,0.209,258.098429825,11.912,10.078,7.27128,-3.095,-5.006,-6.63178,5.37758,4.19221,-10.11,16.91078,12.751190000000001,13.243920000000001
156,102,No,7.407,-3.3040000000000003,258.098205,12.487,8.587,8.15,-4.863,-4.401,-9.259,6.841,4.804,-13.766,14.732000000000001,11.499,13.324
155,103,Lr,7.392,-1.559,258.101753,13.107000000000001,7.252,8.90448,-7.015000000000001,-1.5,-9.156,5.955,2.754,,17.671,12.839,15.586
154,104,Rf,7.382537999999999,-5.456,258.103426362,14.02365,6.05897,9.192770000000001,-8.903,-1.19519,-11.937,7.59671,3.613,,15.30524,11.257790000000002,15.180200000000001
153,105,Db,7.3580000000000005,-3.447,258.109284,14.844000000000001,4.5280000000000005,9.5006,,1.843,,6.481,1.358,,18.286,12.332,17.496
152,106,Sg,7.3420000000000005,,258.112984,,3.556,9.620000000000001,,2.088,,,2.2520000000000002,,15.456,10.515,16.56
159,100,Fm,7.407,0.08,259.100596,11.028,,6.47,-0.374,,-6.054,4.793,6.287,-4.658,15.012,11.381,12.31
158,101,Md,7.405,-0.454,259.10051,11.511000000000001,10.357000000000001,7.11,-2.228,-6.367,-5.925,6.134,4.091,-8.367,15.745000000000001,13.001,12.084
157,102,No,7.399974,-1.7730000000000001,259.100997503,12.31132,9.0894,7.854,-4.284,-3.637,-8.775,5.47,4.897189999999999,-12.441,15.79632,11.486,14.23815
156,103,Lr,7.390000000000001,-2.5100000000000002,259.102901,12.956,7.719,8.584,-6.139,-3.124,-8.561,7.002,2.915,,16.315,12.894,14.042
155,104,Rf,7.377,-3.629,259.105596,13.647,6.463,9.13,-8.157,-0.404,-11.506,6.05,3.709,,16.408,11.48,16.187
154,105,Db,7.360362,-4.529,259.109491865,14.358,5.252,9.6188,,-0.08,-11.324,7.877,1.63899,,16.83539,12.63302,15.89082
153,106,Sg,7.34,,259.114353,,3.9250000000000003,9.76508,,2.89,,6.795,2.566,,17.024,10.885,17.944
160,100,Fm,7.402,-0.786,260.102809,10.803,,6.3,0.154,,-5.93,6.01,,-3.3810000000000002,13.774000000000001,11.226,
159,101,Md,7.396,0.9400000000000001,260.103653,11.278,10.728,6.94,-1.725,,-5.598,5.144,4.441,-7.121,16.836000000000002,12.826,12.795
158,102,No,7.397,-2.665,260.102643,12.009,9.393,7.7,-3.535,-5.381,-8.311,6.538,5.301,-10.936,14.636000000000001,11.483,12.668000000000001
157,103,Lr,7.383,-0.87,260.105504,12.648,7.988,8.396,-5.396,-2.636,-8.157,5.646,3.091,-15.047,17.51,12.894,14.93
156,104,Rf,7.377,-4.526,260.106439,13.337,6.909,8.9,-7.401,-2.221,-10.915000000000001,7.287,3.994,,15.076,11.346,14.546000000000001
155,105,Db,7.357,-2.875,260.111297,14.267,5.687,9.501,-9.651,0.532,-10.918000000000001,6.390000000000001,1.978,,18.043,12.67,16.654
154,106,Sg,7.342562,-6.776,260.114383508,14.839,4.37143,9.900590000000001,,0.896,,8.043000000000001,2.73243,,15.461,11.205,16.32753
153,107,Bh,7.313,,260.121658,,3.052,10.4003,,4.043,,,0.485,,18.791,,18.763
160,101,Md,7.391,0.123,261.105828,11.188,,6.75,-0.98,,-5.105,6.045,4.476,-5.73,15.585,13.016,11.523
159,102,No,7.388,-1.103,261.105696,11.766,9.827,7.44,-2.864,-4.6000000000000005,-7.893,5.228,5.386,-9.55,15.542,11.632,13.675
158,103,Lr,7.381,-1.7610000000000001,261.10688,12.436,8.644,8.14,-4.75,-4.283,-7.66,6.79,3.343,-13.575000000000001,16.19,12.944,13.518
157,104,Rf,7.371384,-2.99,261.10876999,13.186,7.33792,8.64642,-6.68645,-1.582,-10.426,5.9,4.247,,16.178,11.4,15.487
156,105,Db,7.357,-3.697,261.11198,13.825000000000001,6.122,9.218,-8.825000000000001,-1.2570000000000001,-10.311,7.436,2.128,,16.657,12.831,15.172
155,106,Sg,7.339770000000001,-5.128,261.115948188,14.657,4.9350000000000005,9.713700000000001,,1.569,-13.39,6.61383,2.957,,16.72483,11.072000000000001,17.31041
154,107,Bh,7.317,,261.121454,,3.436,10.5016,,2.1710000000000003,,8.261000000000001,0.7030000000000001,,17.325,12.754,16.983
161,101,Md,7.382000000000001,1.526,262.109101,11.067,,6.5,-0.47500000000000003,,-4.899,5.023,,-4.626,16.572,12.787,
160,102,No,7.385,-2.0,262.107463,11.653,10.242,7.25,-2.291,,-7.5280000000000005,6.425,5.766,-8.265,14.26,11.341000000000001,12.043000000000001
159,103,Lr,7.3740000000000006,-0.291,262.109611,12.318,9.028,7.99,-4.152,-3.766,-7.288,5.5280000000000005,3.642,-12.44,17.201,12.887,14.124
158,104,Rf,7.37,-3.861,262.109923,12.897,7.797000000000001,8.49,-5.973,-3.351,-9.987,6.997,4.454,,14.827,11.405,13.96
157,105,Db,7.352,-2.112,262.114068,13.562000000000001,6.601,9.046,-8.288,-0.594,-9.823,6.126,2.354,,17.817,12.755,16.048000000000002
156,106,Sg,7.341185,-6.176,262.116335446,14.32442,5.359,9.59982,,-0.24179,-12.839,7.710590000000001,3.231,,15.404,11.238809999999999,15.65
155,107,Bh,7.315,,262.122965,14.925,3.709,10.3195,,2.944,,6.663,0.753,,18.705000000000002,12.886000000000001,18.197
161,102,No,7.376,-0.6,263.110714,11.468,,7.0,-1.627,,-7.0440000000000005,5.043,5.787,-7.061,15.262,11.441,13.01
160,103,Lr,7.371,-1.027,263.111358,11.971,9.427,7.68,-3.382,-5.187,-6.735,6.444,3.661,-10.767,15.985000000000001,12.981,12.824
159,104,Rf,7.364,-2.355,263.11246,12.706,8.277000000000001,8.252,-5.4350000000000005,-2.6350000000000002,-9.569,5.708,4.635,-14.922,15.909,11.343,14.790000000000001
158,105,Db,7.352,-3.079,263.114988,13.34,7.025,8.834,-7.385,-2.2800000000000002,-9.326,7.214,2.571,,16.503,12.828,14.481
157,106,Sg,7.337,-4.306,263.118294,13.957,5.706,9.403260000000001,-9.488,0.509,-12.422,6.247,3.352,,16.593,11.382,16.69
156,107,Bh,7.3180000000000005,-5.182,263.122916,14.780000000000001,4.39,10.08,,0.9540000000000001,,8.117,1.159,,17.202,12.812,16.47
155,108,Hs,7.295,,263.12848,,2.9050000000000002,10.7335,,4.023,,,2.152,,17.256,11.219,18.777
162,102,No,7.371,-1.366,264.112734,11.233,,6.82,-1.066,,-6.79,6.19,,-5.771,14.094,11.296,
161,103,Lr,7.363,0.3,264.1142,11.868,9.828,7.4,-2.985,,-6.45,5.424,4.041,-9.681000000000001,16.986,12.786,13.445
160,104,Rf,7.361,-3.285,264.113878,12.459,8.603,8.040000000000001,-4.705,-4.341,-9.106,6.75,4.941,-13.487,14.686,11.383000000000001,13.268
159,105,Db,7.346,-1.42,264.117405,13.034,7.3180000000000005,8.66,-6.696,-1.6560000000000001,-8.9,5.821,2.6830000000000003,,17.68,12.907,15.450000000000001
158,106,Sg,7.338,-5.276,264.118929,13.727,6.189,9.21,-8.781,-1.2630000000000001,-11.785,7.48,3.618,,15.239,11.338000000000001,15.11
157,107,Bh,7.315,-3.5060000000000002,264.124593,14.626,4.774,9.96,,1.6580000000000001,-11.692,6.51,1.422,,18.403,12.917,17.396
156,108,Hs,7.298375,,264.128356405,,3.38049,10.59075,,2.084,,8.186,2.222,,15.733,11.294,17.204580000000004
162,103,Lr,7.359,-0.457,265.116193,11.638,,7.23,-2.25,,-5.915,6.215,4.066,-8.182,15.815,12.996,12.253
161,104,Rf,7.354,-1.793,265.116683,12.208,9.017,7.8100000000000005,-4.105,-3.61,-8.743,5.458,4.976,-12.21,15.672,11.452,14.235
160,105,Db,7.344,-2.312,265.118608,12.771,7.824,8.5,-5.932,-3.1830000000000003,-8.370000000000001,6.95,2.883,-16.195,16.438,12.954,14.028
159,106,Sg,7.333,-3.621,265.12109,13.539,6.539,9.051,-8.106,-0.5710000000000001,-11.335,6.059,3.856,,16.394000000000002,11.405,16.048000000000002
158,107,Bh,7.316,-4.485,265.124977,14.224,5.274,9.682,-10.263,-0.23600000000000002,-11.219,7.714,1.6560000000000001,,16.935,12.913,15.808
157,108,Hs,7.296247,-5.7780000000000005,265.129791799,14.92,3.868,10.47032,,2.829,,6.734260000000001,2.446,,17.115000000000002,11.223,18.18091
156,109,Mt,7.271,,265.135995,,2.396,11.120000000000001,,3.331,,,0.17400000000000002,,17.711000000000002,,17.783
163,103,Lr,7.349,1.546,266.119831,10.897,,7.57,-1.115,,-5.139,4.683,,-6.482,17.322,13.357000000000001,
162,104,Rf,7.352,-2.66,266.118172,12.143,9.512,7.55,-3.541,,-8.478,6.6850000000000005,5.446,-11.06,14.41,11.211,12.593
161,105,Db,7.339,-0.881,266.121028,12.768,8.218,8.21,-5.368,-2.786,-8.129,5.8180000000000005,3.242,-15.225,17.371,12.845,14.654
160,106,Sg,7.332,-4.487,266.121973,13.307,7.037,8.8,-7.519,-2.361,-10.869,7.248,4.154,,14.967,11.371,14.508000000000001
159,107,Bh,7.313,-3.032,266.12679,14.096,5.835,9.426,-9.858,0.332,-10.867,6.382000000000001,1.979,,18.033,12.778,16.64
158,108,Hs,7.298273,-6.8260000000000005,266.130045252,14.56948,4.223,10.345690000000001,,1.053,-13.613,7.83523,2.568,,15.789,11.504,16.592
157,109,Mt,7.2700000000000005,,266.137373,,2.674,10.99565,,4.258,,6.787,0.227,,19.11,13.148,19.112000000000002
163,104,Rf,7.3420000000000005,-0.63,267.121787,11.388,,7.890000000000001,-2.362,,-7.364,4.703,5.4670000000000005,-9.209,15.922,11.931000000000001,14.08
162,105,Db,7.336,-1.732,267.122464,12.551,8.737,7.92,-4.692,-4.837,-7.615,6.734,3.291,-13.717,16.095,12.861,13.344
161,106,Sg,7.327,-2.96,267.124322,13.131,7.462,8.625,-6.847,-1.56,-10.370000000000001,5.883,4.22,-18.074,16.034,11.308,15.375
160,107,Bh,7.313,-3.887,267.1275,13.792,6.295,9.23,-9.025,-1.26,-10.442,7.41,2.141,,16.682,12.848,15.051
159,108,Hs,7.295,-5.138,267.131673,14.39,4.719,10.037510000000001,-11.227,1.746,-13.38,6.555,2.74,,16.949,11.459,17.517
158,109,Mt,7.273000000000001,-6.089,267.137189,15.030000000000001,3.202,10.870000000000001,,2.398,,8.242,0.634,,17.601,13.092,17.38
157,110,Ds,7.248,,267.143726,,1.599,11.776760000000001,,5.454,,,1.371,,17.912,,19.963
164,104,Rf,7.337,-1.586,268.123968,10.743,,8.040000000000001,-1.326,,-6.67,6.04,,-7.354,14.564,12.106,
163,105,Db,7.328,0.26,268.125671,11.818,9.138,8.26,-3.745,,-6.815,5.0840000000000005,3.6710000000000003,-12.089,17.696,13.236,14.475
162,106,Sg,7.3260000000000005,-4.005,268.125392,12.959,7.853,8.3,-6.0280000000000005,-3.931,-10.036,7.075,4.561,-16.847,14.776,11.183,13.758000000000001
161,107,Bh,7.308,-2.023,268.129691,13.44,6.508,9.02,-8.344,-0.556,-9.918000000000001,6.031,2.2880000000000003,,17.900000000000002,12.876,15.97
160,108,Hs,7.298,-6.321,268.131863,14.449,5.3660000000000005,9.62287,-10.818,-0.265,-13.032,7.894,3.225,,15.436,11.279,15.682
159,109,Mt,7.271,-4.497,268.138649,14.954,3.532,10.668000000000001,,3.096,-12.8,6.711,0.791,,18.725,13.115,18.382
158,110,Ds,7.252,,268.143477,,2.066,11.66,,3.706,,8.303,1.432,,16.397000000000002,11.834,18.394000000000002
164,105,Db,7.323,-0.614,269.127911,11.068,,8.49,-2.33,,-5.7250000000000005,5.985,3.616,-10.222,16.415,13.936,13.173
163,106,Sg,7.3180000000000005,-1.715,269.12857,12.186,8.259,8.64774,-4.801,-3.0020000000000002,-9.115,5.11,4.588,-15.072000000000001,16.399,11.89,15.333
162,107,Bh,7.309,-3.086,269.130412,13.431000000000001,7.174,8.57,-7.892,-2.873,-9.423,7.4,2.613,,16.383,12.724,14.388
161,108,Hs,7.2940000000000005,-4.806,269.133725,14.232000000000001,5.82,9.344,-10.271,0.47300000000000003,-12.658,6.337,3.532,,16.509,11.323,16.593
160,109,Mt,7.273000000000001,-5.465,269.138884,14.564,3.974,10.53,,1.274,-12.349,7.852,0.749,,17.428,13.098,16.912
159,110,Ds,7.250154,,269.144751021,15.188,2.396,11.50951,,4.716,,6.885,1.605,,17.755,11.737,19.34474
165,105,Db,7.314,0.8160000000000001,270.131302,10.897,,8.26,-1.919,,-5.527,4.913,,-8.403,17.542,13.727,
164,106,Sg,7.314,-2.735,270.130426,11.453,8.562,8.99,-3.621,,-8.058,6.343,4.946,-13.187,15.14,12.281,13.693
163,107,Bh,7.301,-0.886,270.133362,12.723,7.413,9.0645,-6.484,-2.211,-8.409,5.323,2.825,,18.135,13.284,15.798
162,108,Hs,7.295,-5.598,270.134314,13.86,6.267,9.0699,-9.566,-1.939,-12.329,7.523000000000001,3.654,,15.017,11.211,14.953000000000001
161,109,Mt,7.271,-3.968,270.140323,14.583,4.674,10.1811,,1.944,-12.196,6.731,1.1420000000000001,,18.591,12.922,17.591
160,110,Ds,7.253775,,270.14458309,15.112,2.729,11.11699,,2.826,,8.22774,1.981,,16.238,11.751,17.672
165,106,Sg,7.305,-1.164,271.133932,11.148,,8.888,-2.983,,-7.54,4.805,4.839,-11.191,16.32,12.56,14.928
164,107,Bh,7.298,-1.819,271.135182,11.699,7.805000000000001,9.42213,-5.18,-3.6750000000000003,-7.263,6.376,2.859,,16.869,13.984,14.506
163,108,Hs,7.288,-3.361,271.137135,12.966000000000001,6.6000000000000005,9.51,-8.208,-1.04,-11.042,5.444,3.775,,16.973,11.798,16.585
162,109,Mt,7.273000000000001,-4.847,271.140742,14.412,4.955,9.91,,-0.41400000000000003,-11.649000000000001,7.681,1.301,,17.248,13.135,15.941
161,110,Ds,7.252,,271.145946,15.030000000000001,3.194,10.86997,,3.5460000000000003,,6.8020000000000005,2.052,,17.289,11.661,18.764
166,106,Sg,7.301,-2.209,272.13589,11.053,,8.68,-2.426,,-7.412,6.248,,-9.434000000000001,14.984,12.296,
165,107,Bh,7.29,-0.217,272.138261,11.579,8.095,9.303,-4.792,,-7.022,5.203,3.257,-13.984,18.009,13.891,15.288
164,108,Hs,7.2860000000000005,-4.575,272.138494,12.249,7.063,9.78,-7.008,-3.04,-10.166,6.805,4.204,,15.491,12.393,14.89
163,109,Mt,7.267,-2.433,272.143406,13.272,5.223,10.35,-9.192,0.371,-10.438,5.591,1.448,,19.18,13.882,17.75
162,110,Ds,7.255,-6.758,272.146018,14.806000000000001,3.676,10.76,,0.985,,8.004,2.375,,16.015,11.509,17.097
161,111,Rg,7.227,,272.153273,,2.515,11.19743,,4.383,,,0.464,,18.806,12.802,19.05
167,106,Sg,7.291,-0.615,273.13958,10.882,,,-1.872,,-6.843,4.634,,-8.338000000000001,,12.575000000000001,
166,107,Bh,7.2860000000000005,-1.2570000000000001,273.14024,11.431000000000001,,9.06,-4.08,,-6.445,6.228,3.236,-12.062,16.587,14.006,13.973
165,108,Hs,7.279,-2.822,273.14159,11.992,7.445,9.70285,-6.465,-1.979,-9.763,5.188,4.188,,16.68,12.528,16.046
164,109,Mt,7.265000000000001,-3.6430000000000002,273.14462,12.531,5.7860000000000005,10.81,-7.982,-1.366,-9.373,6.94,1.583,,17.683,14.464,16.133
163,110,Ds,7.2490000000000006,-4.339,273.148531,13.735,3.963,11.3669,,2.06,-12.489,5.73,2.515,,17.966,12.509,18.89
162,111,Rg,7.231,,273.153189,,2.984,10.9,,1.824,,8.15,0.609,,17.458000000000002,12.881,17.631
167,107,Bh,7.2780000000000005,0.196,274.143513,11.251,,8.949620000000001,-3.564,,-6.28,5.023,3.625,-10.932,17.812,13.788,
166,108,Hs,7.276,-3.7600000000000002,274.143303,11.663,7.672000000000001,9.57,-5.711,-3.821,-9.298,6.476,4.436,,15.407,12.429,14.375
165,109,Mt,7.259,-1.952,274.147339,12.478,6.122,10.595,-7.367,-0.676,-9.181000000000001,5.538,1.934,,18.95,14.370000000000001,16.971
164,110,Ds,7.2490000000000006,-5.416,274.149434,12.96,4.3870000000000005,11.66,,0.018000000000000002,-11.569,7.23,2.8040000000000003,,16.327,12.961,17.104
163,111,Rg,7.227,,274.155249,14.303,3.5460000000000003,11.4779,,2.611,,6.1530000000000005,1.031,,19.309,13.529,19.159
168,107,Bh,7.273000000000001,-0.929,275.14567,11.085,,,-3.138,,-5.867,6.062,,-9.605,16.384,13.974,
167,108,Hs,7.267,-2.209,275.146667,11.413,7.976,9.4375,-4.945,,-8.698,4.938,4.351,,16.697,12.694,15.685
166,109,Mt,7.256,-2.736,275.149039,12.027000000000001,6.382000000000001,10.482700000000001,-6.4670000000000005,-2.142,-8.44,6.488,1.946,,17.649,14.686,15.686
165,110,Ds,7.244,-3.731,275.151976,12.933,4.9030000000000005,11.4,,0.79,-11.119,5.704,2.97,,17.563,12.848,18.205000000000002
164,111,Rg,7.227,,275.155981,13.542,3.995,11.77,,0.761,,7.389,1.191,,17.651,14.145,17.361
168,108,Hs,7.264,-3.029,276.148455,11.343,,9.28,-4.256,,-8.615,6.405,4.694,-12.067,15.315,12.516,13.914
167,109,Mt,7.25,-1.227,276.151708,12.074,6.945,10.10041,-6.172,-1.665,-8.322000000000001,5.585,2.594,,18.54,14.289,16.328
166,110,Ds,7.243,-4.945,276.153024,12.799,5.523,11.11,-7.811,-1.367,-10.826,7.095,3.576,,16.006,12.693,16.298000000000002
165,111,Rg,7.222,-2.866,276.158333,13.269,4.337,11.48,,1.369,,5.881,1.368,,19.0,13.995000000000001,18.42
164,112,Cn,7.2090000000000005,,276.16141,,3.423,11.913,,1.498,,,2.232,,16.45,12.522,17.643
169,108,Hs,7.255,-1.475,277.151899,11.269,,9.05,-3.648,,-7.893,4.864,,-10.91,16.513,12.675,
168,109,Mt,7.247,-2.172,277.153483,12.003,7.301,9.91,-5.37,,-7.6450000000000005,6.418,2.606,,17.059,14.346,14.933
167,110,Ds,7.237,-3.197,277.155815,12.567,6.057,10.825000000000001,-7.2620000000000005,-0.434,-10.417,5.472,3.463,,17.022000000000002,12.759,17.301000000000002
166,111,Rg,7.222,-4.065,277.159247,13.101,5.069,11.200000000000001,,-0.266,-10.086,7.22,1.493,,17.483,14.004,16.738
165,112,Cn,7.205,,277.163611,,3.74,11.622200000000001,,2.572,,6.021,2.373,,17.818,12.654,18.852
169,109,Mt,7.24,-0.645,278.156454,11.722,,9.62903,-4.781,,-7.476,5.304,3.0460000000000003,-13.153,18.161,13.98,15.691
168,110,Ds,7.235,-4.136,278.157146,12.303,6.482,10.47,-6.551,-2.4010000000000002,-10.028,6.831,3.876,,15.777000000000001,12.416,15.408
167,111,Rg,7.218,-2.415,278.161587,13.112,5.376,10.8463,-8.372,0.26,-9.957,5.892,1.9120000000000001,,18.686,13.816,17.335
166,112,Cn,7.206,-5.957,278.164179,13.563,4.187,11.31,,0.503,,7.542,2.694,,16.157,12.501,17.014
165,113,Ed,7.182,,278.170574,,3.1750000000000003,11.8508,,3.262,,,0.803,,19.247,,19.240000000000002
170,109,Mt,7.237,-1.6300000000000001,279.158343,11.615,,9.38,-4.279,,-6.957,6.311,,-11.743,16.714,14.074,
169,110,Ds,7.228,-2.649,279.160093,12.157,6.945,10.081,-5.904,,-9.463000000000001,5.3260000000000005,3.899,,16.869,12.675,16.487000000000002
168,111,Rg,7.216,-3.255,279.162937,12.706,5.771,10.5211,-7.464,-1.25,-9.229000000000001,6.814,1.895,,17.345,14.097,16.106
167,112,Cn,7.202,-4.2090000000000005,279.166432,13.515,4.688,11.040000000000001,,1.36,-11.93,5.974,2.7760000000000002,,17.403,12.408,18.135
166,113,Ed,7.184,,279.17095,,3.677,11.518,,1.433,,7.721,0.982,,17.547,13.751,17.399
170,110,Ds,7.226,-3.366,280.16159,12.003,,9.81,-5.176,,-9.326,6.6770000000000005,4.264,,15.496,12.416,14.674
169,111,Rg,7.212,-1.81,280.165203,12.774000000000001,6.428,10.146120000000002,-7.2540000000000004,-0.899,-9.215,5.96,2.529,,18.216,13.61,16.564
168,112,Cn,7.202,-5.444,280.167147,13.379,5.263,10.73,,-0.718,-11.614,7.405,3.367,,15.89,12.223,16.202
167,113,Ed,7.18,,280.172991,13.891,3.955,11.229000000000001,,2.076,,6.17,1.179,,18.919,13.601,18.449
171,110,Ds,7.219,-1.866,281.164715,11.837,,9.513,-4.588,,-8.526,5.1610000000000005,,,16.646,12.56,
170,111,Rg,7.21,-2.722,281.166718,12.620000000000001,6.777,9.904,-6.513,,-8.471,6.66,2.512,,16.882,13.780000000000001,15.208
169,112,Cn,7.197,-3.79,281.169641,13.153,5.684,10.45413,,0.21,-11.192,5.748,3.1550000000000002,,16.956,12.366,17.285
168,113,Ed,7.181,,281.17371,13.572000000000001,4.543,11.047,,0.635,,7.402,1.175,,17.491,13.742,16.939