N,Z,element,be_per_a,beta_decay_energy,atomic_mass,s2n,s2p,qa,q2b,qep,qbn,s1n,s1p,q4b,qda,qpa,qna
55,42,Mo,8.6350926,-0.320264,96.906016903,15.975464200000001,16.4627023,-2.8475886999999998,-1.4241362,-9.3948115,-9.7943703,6.821129200000001,9.2308411,-9.738848,9.9523781,3.6884178000000003,5.371033300000001
54,43,Tc,8.6237254,-1.1038722,96.90636072,17.3457177,15.0161071,-2.4365124000000002,-4.6268722,-8.9105772,-9.2153694,9.474106299999999,5.718518200000001,-16.3204095,11.198243000000002,6.0536981,4.7910288
53,44,Ru,8.6042799,-3.523,96.907545776,18.805441599999998,12.986634,-1.7384011000000001,-8.3147118,-4.6146459,-14.5041501,8.1114972,7.5878871,-25.3865373,10.6115977,2.9018227000000003,7.9399173
52,45,Rh,8.5598949,-4.7917118,96.911327872,20.399583900000003,11.1541515,-1.416364,-11.693537300000001,-4.0648871,-14.485462799999999,10.9811501,3.8061502000000003,-35.208,11.571001500000001,4.8500931000000005,7.207169700000001
51,46,Pd,8.5024303,-6.9018255,96.916471985,23.9825757,8.9260359,-3.0140450999999997,-17.0718255,0.9855616,-21.3655251,9.693751,5.4070913,,11.245571,-0.03417390000000001,10.424151900000002
50,47,Ag,8.4232121,-10.17,96.9238814,27.141000000000002,7.1413527000000006,-4.317133300000001,-23.514,1.4947342000000001,-23.404,14.4636996,2.0095785,,9.772693,0.0623088,7.6499985
49,48,Cd,8.310301299999999,-13.344,96.934799343,29.821,5.3460562000000005,-4.1771333,,8.1604215,-30.716,13.234,3.5113526000000004,,9.883000000000001,-3.468,11.0146558
48,49,In,8.165000000000001,,96.949125,,2.062,-3.415,,9.833,,17.371,-0.893,,10.377,-2.086,10.659
63,35,Br,8.078,16.07,97.969887,5.9830000000000005,,,26.319,,11.302,2.121,,44.239000000000004,,7.274,
62,36,Kr,8.234,10.249,97.952635,7.181,,-9.742,22.302,,6.328,4.768,17.409,37.162,4.8,4.594,-8.014
61,37,Rb,8.330729400000001,12.0532361,97.941632317,9.157437700000001,30.737000000000002,-9.144,17.9195952,-27.658,6.1402035,3.921326,14.234624900000002,29.155459800000003,9.4233362,6.6538232,-4.873
60,38,Sr,8.4457385,5.8663590999999995,97.928692636,9.6467767,27.918649000000002,-7.499524500000001,14.859369000000001,-26.287861000000003,1.6217482,5.913032500000001,15.192215000000001,21.6935918,5.642769400000001,4.3319739,-4.6170659
59,39,Y,8.497616200000001,8.9930098,97.922394841,10.1013978,25.5123389,-6.1508723000000005,11.235864600000001,-21.0585742,2.5766272,4.2446109,10.997044599999999,14.1434662,11.340307300000001,7.692591999999999,-0.7520383
58,40,Zr,8.5813984,2.2428547,97.912740448,11.9855336,22.941451700000002,-4.860952500000001,6.8342228,-19.9900545,-3.7502788000000002,6.4163826,12.4552738,6.9431139,7.7590355,4.790234900000001,-0.5180709000000001
57,41,Nb,8.5963016,4.5913680999999995,97.910332645,14.064418,19.7725684,-3.5980554000000002,2.9076017000000003,-14.698128500000001,-4.0512298,5.9931336,7.8768903,-0.34939370000000003,12.625054800000001,6.999383300000001,3.3297271999999998
56,42,Mo,8.635169099999999,-1.6837664,97.905403609,15.4637271,17.2550624,-3.2715647,0.10889109999999999,-12.468258400000002,-8.9628619,8.6425979,9.802154699999999,-6.7949949,8.1976571,3.5343464,3.1903622
55,43,Tc,8.6100047,1.7926575,97.907211206,16.7532018,15.4073256,-2.4880667,-3.2569953999999997,-8.1183882,-8.3829677,7.2790955,6.1764845,-13.3657891,13.0734825,6.1437137,6.0004599
54,44,Ru,8.620314,-5.0496529,97.905286709,18.2871224,14.0079242,-2.2357080000000003,-6.903886000000001,-7.969142,-13.6986252,10.1756252,8.289406000000001,-20.588446700000002,8.3075838,2.6605385999999998,5.1334032
53,45,Rh,8.5608038,-1.8542330999999999,97.910707734,19.6301224,11.931512399999999,-1.4418027,-10.108793799999999,-3.2397531,-13.4406841,8.6489723,4.343625299999999,-29.269000000000002,13.6159736,5.1465954,8.4925385
52,46,Pd,8.5338999,-8.2545607,97.912698335,21.280202000000003,9.8185425,-1.1622991,-13.6845607,-2.4893923,-18.4882765,11.586450999999999,6.0123923,,9.0775538,1.8836862,7.7831755000000005
51,47,Ag,8.4416866,-5.43,97.92155997,24.6974154,7.9566346999999995,-2.5837173,-19.16,2.2421684,-20.4037158,10.2337158,2.5495433,,13.8278018,1.7635434,10.9205939
50,48,Cd,8.3782953,-13.73,97.927389315,28.207,6.0309473,-3.9590601000000003,,2.8804567000000003,-28.318,14.9737158,4.0213688,,7.5860277,-2.866,7.975890400000001
49,49,In,8.23,,97.942129,31.959,3.973,-3.9290000000000003,,9.709,,14.588000000000001,0.461,,12.376,-1.986,11.646
63,36,Kr,8.175,12.721,98.958776,7.119,,-10.365,24.119,,7.898000000000001,2.351,17.639,39.217,6.311,4.674,
62,37,Rb,8.295301,11.3973767,98.94511919,8.744641600000001,31.699,-9.696,19.5225804,-30.36,7.2299204,4.8233157,14.290000000000001,31.2141938,7.0131556,6.8245868000000005,-7.265000000000001
61,38,Sr,8.4025235,8.1252037,98.932883604,10.0804888,29.672970300000003,-8.7845222,15.098143400000001,-25.687,1.6989028000000002,4.1674563,15.438345400000001,23.4515794,6.7114248,3.6998793,-3.7904430000000002
60,39,Y,8.4766938,6.972939800000001,98.924160839,10.6709118,26.702527999999997,-7.1783391000000005,11.6916134,-23.5635491,2.566709,6.4263009,11.510313,16.6841388,8.6477506,7.1385727,-3.6429773
59,40,Zr,8.539225,4.7186736,98.916675081,10.8226134,23.6139383,-4.9243017,8.353436,-18.4832528,-2.1633761,4.4062308,12.6168936,10.0087146,9.2095916,5.5773709,0.9479799000000001
58,41,Nb,8.5789859,3.6347623,98.911609377,12.875183300000002,20.7978312,-3.5523225000000003,4.992525400000001,-17.335567299999997,-2.2906816,6.8820497,8.3425574,3.2491778,11.312156100000001,7.9675714,1.6410443000000001
57,42,Mo,8.6077982,1.3577631,98.907707299,14.568041800000001,17.6113554,-2.7350817000000003,1.6552787000000002,-11.9773198,-7.6092104,5.9254439,9.734465,-3.7872448,10.343497600000001,4.4967794,5.115156
56,43,Tc,8.6136105,0.2975156,98.906249681,16.2460689,16.3030147,-2.9665136000000003,-1.7433476,-11.0922281,-7.1743159,8.9669734,6.500859999999999,-10.6153864,10.9276382,6.3310753,3.9213633
55,44,Ru,8.6087132,-2.0408632,98.905930284,17.6474567,14.6586265,-2.3384283,-5.4425235,-6.798375600000001,-12.5214844,7.4718315,8.482142,-17.694253,10.3098586,3.0603186,6.815906699999999
54,45,Rh,8.580195900000001,-3.4016603,98.908121241,19.1295936,12.938027400000001,-1.9880826999999999,-8.8720388,-6.4412789,-12.334854300000002,10.4806212,4.6486213,-24.208000000000002,11.2468496,5.3599186,5.8835287
53,46,Pd,8.5379332,-5.4703785,98.911773073,20.519645,10.6402393,-1.1500184999999998,-12.2517296,-1.246961,-17.187754700000003,8.933194,6.2966139000000005,-34.207,11.125509899999999,2.368926,9.5439259
52,47,Ag,8.474774400000001,-6.7813511,98.917645766,21.951092000000003,8.6928608,-0.7967822999999999,-15.336,-0.8262354000000001,-17.1473762,11.7173762,2.6804685,,11.804176600000002,4.3349918,8.6216515
51,48,Cd,8.3983734,-8.555,98.924925845,25.339741000000004,6.7032215,-2.3901348,-21.955000000000002,4.1008825,-24.096,10.366025200000001,4.153678200000001,,11.6837022,-0.5554312,11.898689899999999
50,49,In,8.304,-13.4,98.93411,30.129,5.05,-3.895,,4.401,,15.541,1.029,,10.069,-0.9400000000000001,8.782
49,50,Sn,8.161,,98.948495,,1.82,-3.345,,12.371,,,1.359,,10.124,-5.022,13.242
64,36,Kr,8.134,11.796,99.962995,6.492,,,25.348,,8.58,4.141,,41.903,4.291,4.3950000000000005,
63,37,Rb,8.2445085,13.551620400000001,99.950331532,8.0393678,32.794000000000004,-10.481,21.0553569,,8.1813246,3.2160520999999997,15.155000000000001,33.5253616,8.565,6.0216696,-6.619
62,38,Sr,8.3722012,7.5037365000000005,99.93578327,9.537752200000002,30.275000000000002,-9.160738799999999,16.5552314,-28.707,2.7549078,5.3702959,15.985325600000001,26.3755241,5.2624549,3.5656952000000004,-6.7476038
61,39,Y,8.4394151,9.0514949,99.927727678,11.175129499999999,27.5300307,-8.391806,12.4700047,-23.489062099999998,2.2241111,4.7488287,12.091685400000001,18.6997101,9.8119545,6.1234882,-3.1556943000000004
60,40,Zr,8.522106599999999,3.4185098,99.918010499,11.233614600000001,24.5282896,-5.879403900000001,9.820292799999999,-21.1431802,-2.1087102,6.8273838,13.0179766,12.854655300000001,6.6268187,4.606774000000001,-2.1456597000000004
59,41,Nb,8.548468300000001,6.401782900000001,99.914340578,12.409269700000001,22.0804402,-3.8861757,6.2297054,-16.436486400000003,-1.8924577,5.527220000000001,9.463546599999999,5.7998842999999995,12.2013187,8.0095024,1.9706112
58,42,Mo,8.6046626,-0.1720776,99.907467982,14.2196845,19.4892134,-3.1790846000000004,3.0343626,-15.865329599999999,-6.9364775000000005,8.2942406,11.1466559,-0.9803563000000001,8.0423905,4.2738232,2.3900664000000003
57,43,Tc,8.595118399999999,3.2064401,99.907652715,15.7313734,17.0742811,-2.8430366,-0.4298211,-10.9745784,-6.4668844,6.7644,7.339816,-7.8829817,12.8058362,6.3878045000000006,5.2282477
56,44,Ru,8.619359300000001,-3.6362612,99.90421046,17.145156,15.6893531,-2.8574178000000003,-4.0147189,-10.5462562,-11.714187599999999,9.673324500000001,9.1884931,-15.0327958,7.9156296,2.8611003999999998,3.9637114
55,45,Rh,8.5751732,-0.3784577,99.908114147,18.5585476,13.7368583,-2.1943977,-7.4531606,-5.5522317999999995,-11.4795867,8.0779264,5.2547162,-21.412983800000003,13.3445484,5.393489400000001,7.2797086
54,46,Pd,8.5635652,-7.074703,99.908520438,20.0343231,11.5657431,-1.5572031,-11.018077,-4.8762586,-16.5715075,11.101129,6.9171217,-28.0645262,8.6733532,2.2489471,6.5542941
53,47,Ag,8.4849947,-3.943374,99.916115443,21.214180799999998,9.540693,-0.8751531,-13.9598232,0.1575812,-16.2781556,9.496804599999999,3.2440791,,13.8938231,4.5319382,10.105997
52,48,Cd,8.437737499999999,-10.016449199999998,99.920348829,22.7008068,7.4515521,-0.4360917,-17.046449199999998,0.6992949,-20.89,12.334781600000001,4.7710836,,9.5826363,1.5734868,9.2576592
51,49,In,8.3297495,-7.03,99.931101929,26.414,5.6896636,-2.0914166,,5.2453656,-24.273,10.873000000000001,1.5359854000000002,,14.1690856,1.4199359999999999,12.372283
50,50,Sn,8.251626,,99.938648944,,4.0896636,-4.001,,5.494014600000001,,17.243000000000002,3.061,,7.469,-4.894,9.232282999999999
65,36,Kr,8.075,13.987,100.969318,6.323,,,26.745,,9.614,2.181,,44.581,,4.3340000000000005,
64,37,Rb,8.206175300000002,12.7574969,100.954302,7.5889036,,-10.992,22.4873691,,9.178769,4.3728514,15.386000000000001,36.3240704,6.543,6.417,-8.871
63,38,Sr,8.324741099999999,9.729872100000001,100.940606264,8.9490238,31.503,-10.3263317,17.836072400000003,-28.144000000000002,3.9250086000000004,3.5787279,16.3480013,28.195037199999998,6.5070427,3.9082932,-5.558
62,39,Y,8.4133305,8.106200300000001,100.930160817,10.5536922,28.5115786,-8.9605579,13.836701300000001,-26.077873500000003,3.2466313,5.8048636,12.5262531,21.289806100000003,8.174547200000001,6.2316571000000005,-5.0392319
61,40,Zr,8.4858439,5.730501100000001,100.921458454,11.686952799999998,25.220402200000002,-7.0052287,10.358964700000001,-20.6324533,-1.4410591,4.8595690000000005,13.128716800000001,14.7971258,8.1935506,3.991816,-1.0921961
60,41,Nb,8.5348355,4.6284637,100.915306508,12.6987802,22.8256996,-5.200949,7.4531047,-18.8592179,-0.7697773,7.1715602,9.807723,8.5209401,9.4359893,7.254324800000001,-0.9563381000000001
59,42,Mo,8.5729159,2.8246411,100.910337648,13.6924815,20.481223500000002,-3.0081745,4.4381611,-14.4361867,-5.570318500000001,5.3982409,11.017676900000001,1.9121931,9.5261993,4.8687158,3.4082081
58,43,Tc,8.5931366,1.61352,100.907305271,15.1593595,18.587190900000003,-3.1667118000000003,1.0678353999999999,-13.842317900000001,-5.188519500000001,8.3949596,7.440535,-5.0102085,10.3363205,6.6354429,2.8264217
57,44,Ru,8.601366,-0.5456846000000001,100.905573086,16.4753639,16.5659486,-2.8383281,-2.5259679,-9.054055,-10.4383007,6.8020395,9.226132600000001,-12.121647000000001,10.0805636,3.3381564,5.8042699
56,45,Rh,8.588217199999999,-1.9802833000000002,100.906158903,17.9705425,14.6625009,-2.6129074,-6.0780439,-8.680447899999999,-10.2710737,9.8926161,5.474007800000001,-18.8675266,10.9237639,5.6764986,4.666188
55,46,Pd,8.5608644,-4.0977606,100.908284824,19.3919194,12.384701999999999,-1.7364963,-9.5956791,-3.4937245,-15.3654934,8.2907904,7.129985700000001,-25.1265203,10.863184,2.607129,8.4391289
54,47,Ag,8.512546500000001,-5.4979186,100.912683951,20.764537400000002,10.3278046,-1.1617358,-12.7894828,-3.0322252,-15.2111068,11.2677328,3.4106828,,11.5592843,4.8506565,7.4872366
53,48,Cd,8.4503657,-7.2915642,100.918586209,22.047969900000002,8.2315463,-0.455529,-15.530841200000001,2.0872357000000004,-19.729637500000003,9.713188200000001,4.9874673000000005,,11.5868243,2.0940143,11.130922
52,49,In,8.370426,-8.239277,100.926414025,23.311,6.4103606,-0.06579030000000001,,2.304097,-19.4680733,12.438073300000001,1.639277,,12.0970375,3.9555785,10.167925499999999
51,50,Sn,8.281103,,100.935259252,28.472,4.9524346999999995,-1.9965133000000002,,6.5999999,,11.2287963,3.4164493000000005,,11.781,-1.5350000000000001,12.977202499999999
65,37,Rb,8.1527443,14.906999100000002,101.960008,7.1290641,,-11.627,23.9203292,,10.0012842,2.7562127000000003,15.961,39.0459527,7.928,6.0120000000000005,
64,38,Sr,8.2912213,9.0133301,101.944004679,8.4844428,32.267,-10.464,19.4221157,-30.868000000000002,4.8241572999999995,4.9057149,16.8808648,31.401554400000002,4.8173799,3.825894,-8.113
63,39,Y,8.3719172,10.4087856,101.934328471,9.9940364,29.484699300000003,-9.228404699999999,15.1256235,-25.8941949,3.9170275,4.189172800000001,13.1366979,23.40028,9.3556703,6.209940700000001,-4.405089
62,40,Zr,8.466294,4.716838,101.923154181,11.3513271,26.3418645,-7.5839543,11.979438700000001,-23.5454835,-0.7612571,6.4917581,13.8156114,17.525007900000002,6.4506212,3.9263587,-3.4164979
61,41,Nb,8.5048675,7.2626008,101.918090447,12.6496552,23.5549659,-6.434433100000001,8.274656499999999,-18.5324494,-0.8496313,5.478095000000001,10.426249100000001,10.485051200000001,10.7852781,6.182460600000001,-0.0081322
60,42,Mo,8.5683994,1.0120557000000001,101.910293725,13.510473000000001,21.766071800000002,-4.704024,5.5455691,-17.6888498,-5.287591000000001,8.1122321,11.9583488,4.3420974,6.941187200000001,3.6385334,-0.29779320000000004
59,43,Tc,8.570651400000001,4.5335133999999995,101.909207239,14.6946063,19.359617699999998,-3.473225,2.2103946999999997,-12.9704045,-4.6861267,6.2996467,8.3419408,-2.3262198,12.3309144,6.26124,3.4088247000000003
58,44,Ru,8.6074275,-2.3231187,101.904340312,16.0216796,17.4913482,-3.4153703,-1.2034717000000001,-12.8754542,-9.7653248,9.2196402,10.0508132,-9.4467332,7.6253234,3.0854897,2.5100736
57,45,Rh,8.5769818,1.119647,101.906834282,17.334822199999998,15.340307000000001,-2.7760181,-4.5366145,-7.7276945,-9.4224894,7.442206100000001,6.1141745,-16.0884204,13.1548822,5.706124,6.1909554
56,46,Pd,8.580288699999999,-5.656261499999999,101.905632292,18.832926800000003,13.2535139,-2.1030075000000004,-8.243261500000001,-7.2338214,-14.6398969,10.5421364,7.7795061,-22.9680674,8.398974,2.5456138999999998,5.368824
55,47,Ag,8.517165,-2.587,101.911704538,20.2513683,11.2335137,-1.4963989,-11.5518059,-2.1232446,-14.481554000000001,8.9836355,4.1035279000000005,-31.147000000000002,13.6767778,4.800215000000001,8.984222299999999
54,48,Cd,8.4841322,-8.9648059,101.914481797,21.6077423,9.024971299999999,-0.763632,-14.7248059,-1.5165279,-19.186118200000003,11.894554000000001,5.6142885,,9.1890749,1.9168364999999998,8.169562
53,49,In,8.3885719,-5.76,101.924105911,22.6593856,7.1348683,-0.053386800000000005,-19.595,3.3505175,-18.4605893,10.2213123,2.1474011,,14.2105068,4.100291400000001,11.6639894
52,50,Sn,8.3244313,-13.835,101.930289525,23.929385600000003,5.3182423,0.2766132,,3.6125989,,12.7005893,3.6789652999999998,,9.9540576,1.305,10.6426384
66,37,Rb,8.112,14.120000000000001,102.964401,6.735,,,25.297,,10.928,3.979,,41.868,6.131,6.174,
65,38,Sr,8.242,11.177,102.949243,8.098,33.278,-11.305,20.529,,5.821,3.192,17.317,33.674,5.998,3.85,-7.164000000000001
64,39,Y,8.3426336,9.35196,102.937243796,9.5448831,30.4675582,-9.7607993,16.571634,-28.4936925,5.053075300000001,5.3557103,13.5866934,26.1468867,7.5786879,6.224526200000001,-6.5447472
63,40,Zr,8.4258337,7.219674,102.927204054,10.7906428,27.0620212,-7.7153826,13.145337900000001,-22.938653300000002,0.4179533,4.2988846999999994,13.9253233,19.4581741,7.9566001,4.3763028,-2.3450867
62,41,Nb,8.488332,5.9256639,102.919453416,12.2798157,24.551823100000004,-6.8098529,9.575252800000001,-21.1449973,0.4608801,6.8017207,10.7362117,13.003038,8.8431264,6.2081236,-2.0610242
61,42,Mo,8.5382672,3.6495889000000004,102.913091954,13.577015900000001,22.371286700000002,-5.762577100000001,6.3128362,-16.6618756,-4.452728100000001,5.4647839000000005,11.9450376,6.5026488,8.6479635,3.7009695000000002,1.0648067
60,43,Tc,8.5661045,2.6632474000000004,102.90917396,14.401963700000001,20.290374500000002,-4.6934923,3.4277851999999998,-15.5946265,-3.5688036000000003,8.102317,8.3320257,0.19878210000000002,9.6268384,6.4531636,0.8337277000000001
59,44,Ru,8.5843656,0.7645377999999999,102.906314846,15.4516911,18.3251582,-3.7219773000000003,0.1898126,-10.9952731,-8.5551696,6.2320509,9.9832173,-6.6155413,9.7882321,3.6178387,4.5722632999999995
58,45,Rh,8.5841927,-0.5747251999999999,102.905494081,16.7619136,16.2650549,-3.1287521000000003,-3.2290031,-10.7477552,-8.2000605,9.3197075,6.2142417,-13.3993084,10.6372142,6.059741,3.6356479
57,46,Pd,8.5710173,-2.6542778,102.906111074,18.167471600000002,14.0768097,-2.2565112,-6.8053539,-5.6395165,-13.2815967,7.6253353,7.9626352,-20.365000000000002,10.6662548,2.998205,7.4168132
56,47,Ag,8.537652,-4.1510761,102.908960558,19.6109544,11.9682165,-1.6430966,-10.1703053,-5.3083574,-13.2143189,10.6273189,4.1887104,-28.132,11.3402493,5.2740252000000005,6.4348298
55,48,Cd,8.489754699999999,-6.0192293,102.913416922,20.9577968,9.7974237,-0.8936807999999999,-13.559000000000001,-0.0376343,-18.0280487,9.0632428,5.6938958,,11.3935649,2.3503982999999997,10.207448200000002
54,49,In,8.4237199,-7.54,102.91987883,22.2301318,7.875955,-0.34482999999999997,-17.962,0.3253334,-17.768819500000003,12.0088195,2.2616666,,11.9148756,4.4262536,9.151974599999999
53,50,Sn,8.343,-10.422,102.927973,22.929000000000002,5.8340000000000005,0.41400000000000003,,5.2780000000000005,-24.064,10.229000000000001,3.686,,12.163,1.95,12.749
52,51,Sb,8.234,,102.939162,,2.703,2.281,,6.736,,13.642,-0.976,,14.346,5.3420000000000005,13.154
66,38,Sr,8.206,10.32,103.953022,7.743,,-11.715,21.958000000000002,,6.626,4.551,17.888,36.584,4.203,3.672,-9.533
65,39,Y,8.298,11.638,103.941943,9.05,31.405,-10.239,17.731,-28.208000000000002,5.658,3.694,14.089,28.419,8.790000000000001,6.109,-5.8660000000000005
64,40,Zr,8.4023159,6.0933367,103.929449193,10.2788691,28.1362908,-8.3250712,14.626087799999999,-25.727,1.2396896,5.9799844,14.549597400000001,22.3781036,6.1657885,4.2011819,-4.7463433
63,41,Nb,8.453383200000001,8.532751200000002,103.922907728,11.6553678,25.2162974,-6.9146714000000005,10.687972400000001,-20.642934099999998,1.0720168,4.8536471,11.2909741,15.1483474,10.4812374,6.2140455,-1.1098078
62,42,Mo,8.527906300000001,2.1552212,103.913747443,12.9255182,23.340263,-6.3959277000000005,7.7520157,-19.8237253,-3.8111455000000003,7.460734400000001,12.6040513,9.0513752,6.665324200000001,3.4117954,-1.5363587
61,43,Tc,8.541107,5.5967945,103.911433718,14.0686838,20.7786462,-5.1326391000000005,4.460375,-14.7592725,-3.3031194,5.9663668,8.8336086,2.6175010000000003,11.772703700000001,5.8850378,2.0389211
60,44,Ru,8.5873998,-1.1364195,103.905425312,15.1319648,19.112840000000002,-4.3276506,1.2993594000000002,-14.4304031,-8.1353761,8.8999139,10.7808143,-4.1273722,7.1879649,3.1128844,1.0705903
59,45,Rh,8.5689501,2.4357789,103.906645309,16.318664000000002,16.9643648,-3.3633087,-1.8428740000000001,-9.6443948,-7.5736818,6.9989566000000005,6.9811474,-10.7766693,12.857897800000002,5.8628239,5.0316509
58,46,Pd,8.5848485,-4.2786529,103.904030393,17.634795999999998,14.8666302,-2.5926475,-5.4267316,-9.4169263,-12.6637386,10.0094607,8.652388499999999,-17.7680657,8.0990002,2.8813603,4.209392
57,47,Ag,8.536185,-1.1480787000000001,103.908623715,19.012404500000002,12.911096100000002,-1.9502557999999999,-8.9337953,-4.3737356,-12.536161700000001,8.3850857,4.9484608,-25.822,13.4973001,5.179729900000001,7.9423602
56,48,Cd,8.517623200000001,-7.7857166,103.909856228,20.4513259,10.6433704,-1.1806348,-12.341334100000001,-3.8003820999999998,-17.4073123,11.388083,6.45466,-34.3415607,8.9891173,2.2300481,7.110155600000001