N,Z,element,be_per_a,beta_decay_energy,atomic_mass,s2n,s2p,qa,q2b,qep,qbn,s1n,s1p,q4b,qda,qpa,qna
86,69,Tm,8.088375000000001,-6.123305,154.939209578,18.79522,6.19175,4.57191,-14.08087,0.72443,-14.76515,10.270100000000001,1.30986,-32.698,14.5535,8.738520000000001,12.62526
85,70,Yb,8.043823,-7.957561,154.945783217,19.437,4.61194,5.338760000000001,-16.333000000000002,4.81344,-18.859,8.64184,3.3644499999999997,,14.18153,6.081720000000001,15.64417
84,71,Lu,7.987436,-8.375,154.954326011,20.31484,3.14966,5.80279,-18.617,4.593109999999999,-17.946,10.901,-0.09806999999999999,,15.374,8.58939,14.821629999999999
83,72,Hf,7.928,-10.242,154.963317,23.012,1.54,4.947,,8.473,,9.571,1.744,,14.914,4.116,17.747
82,73,Ta,7.857,,154.974312,,0.133,3.755,,8.498,,,-1.453,,14.083,,15.14
99,57,La,7.997,11.769,155.964519,7.663,,-6.545,18.517,,6.658,3.1910000000000003,,31.113,10.481,8.284,
98,58,Ce,8.068,6.748,155.951884,8.743,26.577,-5.534,15.654,,2.524,5.111,14.178,24.541,7.421,6.104,-2.704
97,59,Pr,8.106,8.906,155.94464,9.605,24.616,-4.702,12.596,-20.926000000000002,2.645,4.224,11.076,18.515,11.363,8.206,0.138
96,60,Nd,8.158066,3.69,155.935078868,10.7913,22.832,-3.918,8.886790000000001,-19.983,-1.60503,6.26124,12.34735,12.06127,8.342139999999999,5.95887,0.082
95,61,Pm,8.176705,5.196786,155.93111749,11.7943,20.63661,-2.8305000000000002,5.9189,-16.03735,-2.04414,5.29503,9.16889,5.92715,12.37214,8.030710000000001,3.05122
94,62,Sm,8.205003000000001,0.722118,155.925538511,13.047889999999999,18.113400000000002,-1.6359400000000002,3.17448,-14.365680000000001,-5.61366,7.2409300000000005,9.70947,1.16853,9.862350000000001,6.15145,3.61627
93,63,Eu,8.204617,2.452366,155.924763285,14.48706,16.14851,-1.25328,0.00825,-10.43159,-6.08399,6.335770000000001,7.1807,-4.60358,13.08343,7.34119,6.21168
92,64,Gd,8.215322,-2.4441170000000003,155.922130562,14.97159,14.657680000000001,-0.19723,-2.00595,-9.63307,-9.35618,8.53635,8.00579,-8.323200000000002,9.914010000000001,5.696359999999999,5.67117
91,65,Tb,8.194638999999999,0.438167,155.92475443,16.07713,12.930620000000001,0.37254000000000004,-4.61183,-5.561680000000001,-9.00656,6.91206,5.30989,-13.25625,14.32596,7.655810000000001,8.92283
90,66,Dy,8.192433000000001,-5.05,155.924284038,16.27769,11.400950000000002,1.75304,-6.31726,-5.74805,-12.560740000000001,9.44473,6.56789,-17.263240000000003,10.33814,5.64843,7.99999
89,67,Ho,8.155046,-1.2672550000000002,155.929705436,16.982290000000003,9.9006,2.81304,-8.64441,-1.5178900000000002,-11.341090000000001,7.51074,3.61239,-21.77942,15.62575,8.528030000000001,11.480770000000001
88,68,Er,8.141908,-7.377159,155.93106589,17.74932,8.39574,3.48125,-10.94599,-2.34513,-15.657110000000001,10.07384,5.46114,-26.394810000000003,11.13841,5.6644499999999995,10.577639999999999
87,69,Tm,8.089603,-3.56883,155.938985597,18.55005,6.773180000000001,4.3453100000000004,-13.135010000000001,1.91602,-14.403260000000001,8.279950000000001,1.9143299999999999,-30.973,16.481279999999998,8.49811,13.823950000000002
86,70,Yb,8.061711,-9.566176,155.942816893,19.47627,5.23864,4.80974,-15.44882,1.6545,-18.791990000000002,10.834430000000001,3.92878,,11.87222,5.57166,12.849290000000002
85,71,Lu,7.995374,-5.8826480000000005,155.953086606,20.127,3.85035,5.59581,-17.838,5.6373999999999995,-17.601,9.22581,0.48591,,16.94334,8.373,15.920190000000002
84,72,Hf,7.95265,-11.956,155.959401889,21.289,2.46275,6.02857,,5.39674,-21.96,11.718,2.56082,,12.609,5.42,15.038
83,73,Ta,7.871,,155.972237,,0.724,5.136,,9.395,,10.004,-1.0198,,17.52,6.303,18.158
99,58,Ce,8.037,8.61,156.957133,8.293000000000001,,-5.885,16.531,,3.5660000000000003,3.182,14.169,26.747,8.711,6.463,-1.464
98,59,Pr,8.086,7.921,156.94789,9.268,25.188,-4.905,13.757,-22.779,3.862,5.0440000000000005,11.009,20.919,9.951,8.543000000000001,-1.364
97,60,Nd,8.131959,5.8355,156.939386037,10.320450000000001,23.259,-3.977,10.216030000000002,-18.931,-0.36922000000000005,4.05922,12.183,14.361930000000001,9.664530000000001,6.50749,1.4040000000000001
96,61,Pm,8.164145000000001,4.380534,156.93312137,11.49975,21.45972,-3.1535,7.16186,-18.019000000000002,-1.00793,6.20472,9.11237,8.466389999999999,10.69749,8.39199,1.45434
95,62,Sm,8.187063,2.781331,156.928418673,12.629389999999999,18.971790000000002,-1.7722,4.1459,-13.4929,-4.66635,5.38846,9.8029,2.74698,10.97316,6.69845,4.7938
94,63,Eu,8.199795,1.364565,156.925432791,13.78345,17.096919999999997,-1.236,1.30452,-12.58423,-4.995310000000001,7.44768,7.38745,-2.62608,11.44272,7.86032,4.699470000000001
93,64,Gd,8.203504,-0.060043,156.92396787,14.89623,15.21059,-0.6887000000000001,-1.3989200000000002,-8.75201,-8.80399,6.35988,8.0299,-7.40983,11.70543,5.7787,7.2781
92,65,Tb,8.198138,-1.338872,156.924032328,15.65601,13.523280000000002,0.17888,-3.9306,-7.96985,-8.30578,8.743950000000002,5.51749,-12.05416,12.01726,7.80658,6.621090000000001
91,66,Dy,8.184627,-2.591725,156.925469667,16.41164,11.932620000000002,1.03308,-6.0109200000000005,-4.17861,-12.01691,6.96691,6.62273,-16.00266,12.536299999999999,5.5958000000000006,9.9278
90,67,Ho,8.163136,-3.419194,156.928251999,16.93593,10.16072,2.05559,-8.123560000000001,-4.03101,-10.692440000000001,9.42519,3.5928400000000003,-20.392310000000002,13.033520000000001,8.42513,8.96987
89,68,Er,8.136375000000001,-4.704366,156.931922655,17.347080000000002,8.836030000000001,3.30439,-9.99174,-0.17364,-14.65041,7.27325,5.2236400000000005,-24.51,13.33671,6.089729999999999,12.62667
88,69,Tm,8.101428,-5.287374,156.936973,18.225990000000003,7.24767,3.87791,-12.26875,-0.51928,-13.514870000000002,9.946040000000002,1.78653,-29.11594,14.21072,8.7598,11.576440000000002
87,70,Yb,8.062767,-6.981376,156.94264923,19.061919999999997,5.790649999999999,4.62179,-14.519,3.50084,-17.79367,8.22749,3.87632,-33.952,13.91482,5.86929,14.82952
86,71,Lu,8.013317,-7.537,156.950144045,20.03811,4.39255,5.10789,-16.847189999999998,3.10506,-16.69494,10.812299999999999,0.46377,,14.77289,8.355620000000002,13.63301
85,72,Hf,7.96,-9.31,156.958236,20.876,2.979,5.88001,-19.433,7.074,-21.113,9.158,2.493,,14.353,5.67595,16.675
84,73,Ta,7.896043,-10.123,156.968230251,21.808,1.62622,6.3546000000000005,,6.81724,,11.803,-0.9346000000000001,,15.287,7.941,15.768
83,74,W,7.827,,156.979098,,-0.122,5.405,,11.058,,,0.898,,15.169,,18.847
100,58,Ce,8.016,7.67,157.960644,7.9830000000000005,,-6.265000000000001,17.395,,3.809,4.801,,28.59,7.101,6.135,
99,59,Pr,8.06,9.725,157.95241,8.905,25.857,-5.2250000000000005,14.759,,4.0600000000000005,3.861,11.688,22.925,11.201,8.314,-0.753
98,60,Nd,8.116,5.035,157.94197,9.724,23.813,-4.26,11.196,-21.413,0.171,5.664,12.803,16.635,8.224,6.2250000000000005,-0.628
97,61,Pm,8.143254,6.161034,157.936565121,11.068200000000001,22.1,-3.4091500000000003,8.16598,-17.838,-0.48295,4.86348,9.91664,10.381459999999999,12.09524,8.05857,1.97246
96,62,Sm,8.177297,2.004945,157.929950979,12.03245,19.35454,-1.8501800000000002,5.4393,-16.07767,-3.8626500000000004,6.64398,10.24217,5.157109999999999,9.62421,6.55374,2.6798800000000003
95,63,Eu,8.185035,3.4343580000000005,157.927798581,13.31527,17.66948,-1.1681300000000001,2.21548,-12.24712,-4.50303,5.8676,7.86658,-1.06759,12.816049999999999,7.79969,5.33114
94,64,Gd,8.201819,-1.218878,157.924111646,14.297270000000001,15.90706,-0.6592899999999999,-0.2822,-11.30094,-7.9974300000000005,7.937390000000001,8.51961,-5.38574,10.10381,5.9926,5.14767
93,65,Tb,8.189153000000001,0.9366810000000001,157.925420166,15.52251,13.96606,-0.15746000000000002,-3.2830700000000004,-7.30073,-8.11743,6.77855,5.936170000000001,-10.76747,13.77505,7.4632700000000005,7.99383
92,66,Dy,8.19013,-4.219755,157.924414597,16.02102,12.45038,0.8736900000000001,-5.10354,-6.872850000000001,-11.64583,9.054110000000001,6.93289,-14.397110000000001,10.39425,5.70676,7.30893
91,67,Ho,8.158471,-0.8837849999999999,157.928944692,16.85126,10.67474,1.54379,-7.4844,-2.71313,-10.845270000000001,7.42608,4.05201,-18.9754,15.05218,7.83201,10.708860000000001
90,68,Er,8.147926,-6.600615,157.929893474,17.23473,9.35279,2.66518,-9.29357,-3.16822,-14.66585,9.96149,5.75995,-23.20142,10.885959999999999,5.5997900000000005,9.49814
89,69,Tm,8.101199,-2.692957,157.936979525,18.01128,7.80217,3.5112,-11.491,0.84067,-13.35261,8.06524,2.57853,-27.537,16.21932,8.370049999999999,12.982750000000001
88,70,Yb,8.079203000000001,-8.798047,157.939870534,18.887150000000002,6.37647,4.16987,-13.90785,0.11443,-17.64103,10.65966,4.5899399999999995,-32.378,11.535120000000001,5.47973,11.84535
87,71,Lu,8.018568,-5.1098,157.949315626,19.655279999999998,4.95558,4.79003,-16.046,4.20811,-16.38,8.842979999999999,1.07926,,16.76434,8.15447,15.06013
86,72,Hf,7.981276,-10.936,157.954801222,20.428130000000003,3.41461,5.40478,-18.47,4.03054,-20.58038,11.271,2.9508400000000004,,12.30796,5.30671,14.04662
85,73,Ta,7.907,-7.534,157.966541,21.448,2.045,6.123600000000001,,7.985,-19.768,9.645,-0.44765,,17.361,7.867,17.025
84,74,W,7.854,,157.974629,,0.394,6.61273,,7.982,,12.234,1.328,,12.939,5.15973,16.184
100,59,Pr,8.039,8.719,158.95589,8.691,,-5.583,15.466000000000001,,4.8950000000000005,4.83,11.717,24.955000000000002,9.553,8.596,-2.391
99,60,Nd,8.089,6.747,158.94653,9.488,24.455000000000002,-4.452,12.401,-20.436,1.211,3.8240000000000003,12.766,18.754,9.444,6.625,0.659
98,61,Pm,8.126859000000001,5.653495,158.939286479,10.399870000000002,22.592,-3.56393,9.48901,-19.513,0.62465,5.536390000000001,9.789,12.97808,10.61807,8.78342,0.66
97,62,Sm,8.157495,3.83551,158.933217202,11.67283,20.32417,-2.34897,6.35366,-15.442,-3.0239000000000003,5.02885,10.407540000000001,6.95936,10.80007,6.819920000000001,3.91227
96,63,Eu,8.176697,2.5181500000000003,158.929099612,12.72701,18.324180000000002,-1.52827,3.48908,-14.24305,-3.42506,6.85941,8.08201,1.2862500000000001,11.3451,8.1812,3.76676
95,64,Gd,8.187614,0.9709270000000001,158.926396267,13.880600000000001,16.4618,-0.79553,0.6057,-10.60016,-7.16209,5.9432100000000005,8.59522,-4.0004,11.60828,6.3851700000000005,6.445399999999999
94,65,Tb,8.1888,-0.36522899999999997,158.925353933,14.91157,14.6514,-0.13919,-2.20283,-9.56615,-7.19633,8.13301,6.1317900000000005,-8.961969999999999,12.00192,7.86661,6.1965900000000005
93,66,Dy,8.181583,-1.8376,158.925746023,15.885209999999999,12.9216,0.47783,-4.6061000000000005,-5.76656,-11.05086,6.8311,6.98544,-13.32853,12.3071,5.78772,9.01418
92,67,Ho,8.165105,-2.7685,158.927718768,16.63934,11.14405,1.4956,-6.75914,-5.14784,-10.097040000000002,9.21326,4.21116,-17.62093,12.80583,8.06349,8.40766
91,68,Er,8.142773,-3.9906370000000004,158.930690875,17.290029999999998,9.71442,2.1696,-8.722430000000001,-1.44266,-13.92916,7.32854,5.66241,-21.70843,12.982600000000001,5.7819899999999995,11.61433
90,69,Tm,8.112754,-4.731792,158.934975,18.00376,8.31551,3.04423,-10.861790000000001,-1.67177,-12.63148,9.93852,2.55556,-26.13125,13.55405,8.505370000000001,10.554969999999999
89,70,Yb,8.078073999999999,-6.130002,158.940054787,18.55934,7.00291,3.9456700000000002,-12.98601,2.17623,-16.69773,7.89969,4.42438,-30.544,13.58147,5.86,14.01951
88,71,Lu,8.034600000000001,-6.856004,158.946635615,19.41072,5.57727,4.49239,-15.269459999999999,1.70562,-15.67753,10.56773,0.9873400000000001,-34.964,14.424100000000001,8.42117,12.772350000000001
87,72,Hf,7.986560000000001,-8.413452,158.953995838,20.092,4.00864,5.225090000000001,-17.558,5.86867,-19.757,8.821530000000001,2.92938,,14.298729999999999,5.711,16.05952
86,73,Ta,7.928725000000001,-9.145,158.963028052,20.98845,2.5765700000000002,5.68098,-19.694,5.48407,-18.878,11.344,-0.37427,,15.175,8.2418,14.906799999999999
85,74,W,7.8660000000000005,-10.55,158.972845,21.967,0.969,6.45048,,9.519,,9.733,1.417,,15.01,5.430689999999999,18.169
84,75,Re,7.795,,158.984171,,-0.271,6.759,,9.133000000000001,,,-1.599,,15.436,,16.763
101,59,Pr,8.011000000000001,10.613,159.960794,8.333,,-5.8950000000000005,16.482,,5.216,3.503,,26.96,10.851,8.274000000000001,
100,60,Nd,8.073,5.868,159.9494,9.222,25.052,-4.739,13.101,,1.349,5.398,13.334,20.808,7.907,6.271,-1.557
99,61,Pm,8.104000000000001,7.2330000000000005,159.9431,10.055,23.25,-3.859,10.478,-19.203,1.1340000000000001,4.519,10.484,14.834,11.763,8.324,1.185
98,62,Sm,8.144625,3.24567,159.935335286,11.127180000000001,20.758,-2.18606,7.70695,-17.717,-2.26282,6.09833,10.969479999999999,9.437940000000001,9.56522,6.926310000000001,1.87315
97,63,Eu,8.160021,4.461278,159.931850916,12.36791,18.969189999999998,-1.74173,4.35579,-14.21515,-2.99034,5.50849,8.56166,2.90227,12.480590000000001,8.06117,4.46298
96,64,Gd,8.183014,-0.10548300000000001,159.927061537,13.39483,17.26944,-1.00623,1.73099,-13.02294,-6.48069,7.45162,9.18743,-1.87751,10.02425,6.381220000000001,4.3822399999999995
95,65,Tb,8.177465,1.836472,159.927174778,14.50822,15.15901,-0.17862,-1.45353,-9.081940000000001,-6.7404399999999995,6.37521,6.56379,-7.53423,13.5641,7.85127,7.26905
94,66,Dy,8.184054,-3.29,159.925203244,15.40802,13.56112,0.43727,-3.6085000000000003,-8.400260000000001,-10.41451,8.57691,7.429340000000001,-11.51002,10.50874,5.95476,6.797140000000001
93,67,Ho,8.158602,-0.318502,159.928735204,16.33777,11.49,1.28315,-6.0807,-4.13934,-9.89301,7.124510000000001,4.50457,-16.11279,14.735430000000001,7.905880000000001,10.0271
92,68,Er,8.151721,-5.7622,159.92907713,16.90305,10.23482,2.03982,-7.9015200000000005,-4.18606,-13.56515,9.57451,6.02366,-20.12528,10.83417,5.63266,9.00673
91,69,Tm,8.110818,-2.139322,159.935263106,17.741470000000003,8.69238,2.75202,-10.03209,-0.26145999999999997,-12.53474,7.80295,3.02996,-24.478330000000003,15.71259,7.97567,12.177209999999999
90,70,Yb,8.092557,-7.892769,159.937559763,18.295099999999998,7.43684,3.6240900000000003,-12.22376,-0.89064,-16.525419999999997,10.39542,4.88128,-28.83625,11.251290000000001,5.41062,10.89733
89,71,Lu,8.038338,-4.330994,159.946033,19.200380000000003,6.14468,4.1396999999999995,-14.44624,3.01149,-15.48865,8.63265,1.7203,-33.531,16.45111,8.016020000000001,14.08574
88,72,Hf,8.00638,-10.115249,159.950682513,19.97919,4.50665,4.90186,-16.61249,2.61069,-19.57111,11.15766,3.51931,,11.98405,5.36563,13.12936
87,73,Ta,7.93827,-6.49724,159.961541679,20.8,3.18945,5.4509300000000005,-19.085,6.59594,-18.6,9.455860000000001,0.26006,,16.9895,7.944,16.26323
86,74,W,7.892772,-12.588000000000001,159.968516753,21.836000000000002,1.8020100000000001,6.06553,,6.23717,-22.653000000000002,12.103,2.17628,,12.551,5.13093,15.223
85,75,Re,7.809,,159.98203,,0.15,6.69775,,10.412,,10.065,-1.26707,,17.605,7.596,18.501
101,60,Nd,8.044,7.648000000000001,160.95428,8.924,,-5.082,14.084,,2.343,3.5260000000000002,13.357000000000001,22.918,9.211,6.606,-0.28200000000000003
100,61,Pm,8.087,6.436,160.94607,9.824,23.725,-4.12,11.556000000000001,-21.004,1.928,5.305,10.391,17.226,10.282,8.683,-0.259
99,62,Sm,8.122041000000001,5.119562,160.939160143,10.60682,21.443,-2.63533,8.833860000000001,-16.827,-1.26282,4.50849,10.959,11.383840000000001,10.59312,7.281300000000001,3.029
98,63,Eu,8.14898,3.714299,160.933664066,11.890870000000001,19.815189999999998,-1.9194000000000002,5.67006,-16.078,-1.9211,6.38238,8.8457,5.40575,11.12706,8.32277,2.94409
97,64,Gd,8.167191,1.9557650000000002,160.929676602,13.08702,17.87599,-1.25316,2.54998,-12.56,-5.740880000000001,5.6354,9.31433,-0.30422000000000005,11.248270000000002,6.6134200000000005,5.39082
96,65,Tb,8.174479,0.594212,160.927577001,14.071860000000001,15.99624,-0.42760000000000004,-0.26432,-11.270100000000001,-5.860180000000001,7.69665,6.80882,-5.56288,11.81065,8.09201,5.44
95,66,Dy,8.17331,-0.85853,160.926939088,15.0313,14.07231,0.34276,-2.85419,-7.40303,-9.74439,6.45439,7.50851,-10.2164,12.187370000000001,6.27892,8.280149999999999
94,67,Ho,8.163119,-1.995663,160.927860759,16.01037,12.24285,1.14124,-5.29856,-6.649979999999999,-9.204360000000001,8.885860000000001,4.81351,-14.63493,12.680670000000001,8.07413,7.9198
93,68,Er,8.145864,-3.3029,160.930003191,16.78321,10.61241,1.79803,-7.36221,-2.81785,-12.9709,7.2087,6.107850000000001,-18.88694,12.83873,5.85004,10.85214
92,69,Tm,8.12049,-4.059308,160.933549,17.47094,9.147120000000001,2.50921,-9.33636,-2.80495,-11.80732,9.668000000000001,3.12345,-23.11971,13.37313,8.26916,9.935290000000002
91,70,Yb,8.090417,-5.277056,160.937906846,18.143430000000002,7.856310000000001,3.1493200000000003,-11.52473,0.93586,-15.640780000000001,7.748010000000001,4.82634,-27.284,13.441799999999999,5.72785,13.110809999999999
90,71,Lu,8.052781,-6.247672,160.943572,18.99637,6.569890000000001,3.7220100000000005,-13.78335,0.45071,-14.69472,10.363719999999999,1.68861,-31.72214,13.98707,8.311950000000001,11.78725
89,72,Hf,8.009117,-7.535674,160.950279151,19.60471,5.05401,4.68231,-15.759,4.559060000000001,-18.56229,8.447049999999999,3.33371,-36.335,14.10474,5.76157,15.34197
88,73,Ta,7.957452,-8.224,160.958369031,20.48248,3.64833,5.23661,-17.93879,4.20197,-17.523860000000003,11.026620000000001,0.12902000000000002,,14.78441,8.18745,14.07959
87,74,W,7.902,-9.715,160.967197,21.403,2.281,5.92288,-20.576,8.095,-21.888,9.3,2.021,,14.595,5.47523,17.193
86,75,Re,7.836312,-10.861,160.977627121,22.238,0.979,6.32821,,7.694520000000001,,12.173,-1.19728,,15.165000000000001,7.656000000000001,15.973
85,76,Os,7.764,,160.989287,,-0.737,7.06587,,12.058,,,0.53,,15.476,,19.3
102,60,Nd,8.026,6.819,161.957541,8.559000000000001,,-5.315,14.979000000000001,,2.614,5.034,,24.73,7.681,6.402,
101,61,Pm,8.063,8.16,161.95022,9.51,24.428,-4.465,12.334,,2.231,4.206,11.071,19.306,11.475,8.301,0.365
100,62,Sm,8.109,4.174,161.94146,10.438,21.974,-2.9,9.751,-19.231,-0.809,5.929,11.583,13.652000000000001,9.183,6.889,0.924
99,63,Eu,8.129438,5.577,161.936979303,11.36557,20.279,-2.03911,6.9725600000000005,-15.757,-1.26889,4.98319,9.32041,7.33814,12.2422,8.36843,3.4972800000000004
98,64,Gd,8.159035,1.395556,161.930992146,12.481290000000001,18.623549999999998,-1.4550699999999999,3.90108,-14.89741,-4.89013,6.845890000000001,9.77785,2.0541199999999997,9.910870000000001,6.626939999999999,3.57378
97,65,Tb,8.16282,2.5055210000000003,161.929493955,13.982330000000001,16.77344,-0.84569,0.36558,-11.173399999999999,-5.691470000000001,6.28569,7.4591,-4.19817,12.97659,7.74953,6.01373
96,66,Dy,8.173457,-2.1399369999999998,161.926804168,14.65138,14.817680000000001,0.08315,-1.8469600000000002,-9.96463,-9.055520000000001,8.19699,8.00886,-8.355129999999999,10.365590000000001,6.2149399999999995,6.0263599999999995
95,67,Ho,8.155418,0.292978,161.929101485,15.80145,12.78323,1.00421,-4.56375,-5.86892,-8.91125,6.91559,5.27471,-13.209790000000002,14.341990000000001,7.98965,9.13722
94,68,Er,8.152397,-4.856728,161.92878696,16.41293,11.23973,1.6479100000000002,-6.50817,-5.56769,-12.50713,9.204229999999999,6.426220000000001,-17.165509999999998,10.759020000000001,5.85907,8.47902
93,69,Tm,8.117588,-1.651444,161.934000872,17.3184,9.673,2.28489,-8.646040000000001,-1.56949,-11.70971,7.650399999999999,3.56515,-21.697599999999998,15.29724,7.9473,11.49814
92,70,Yb,8.102565,-6.994593,161.935773771,17.806279999999997,8.34006,3.05255,-10.65734,-1.91371,-15.33532,10.05826,5.21661,-25.82714,11.18649,5.60811,10.38109
91,71,Lu,8.054559000000001,-3.6627460000000003,161.943282776,18.70445,7.107670000000001,3.44652,-13.05156,1.7779800000000001,-14.5884,8.340729999999999,2.28132,-30.330000000000002,16.04176,7.87091,13.38505
90,72,Hf,8.02712,-9.388814,161.947214896,19.372700000000002,5.58424,4.41631,-15.1698,1.38142,-18.461330000000004,10.92565,3.89563,-34.729,11.81174,5.40365,12.316
89,73,Ta,7.964335,-5.7809870000000005,161.957294202,20.099130000000002,4.0882,5.00708,-17.279,5.493180000000001,-17.296,9.072510000000001,0.75449,,16.86956,7.93646,15.57481
88,74,W,7.923821,-11.498000000000001,161.963500347,20.81539,2.63821,5.67827,-19.559,5.02649,-21.23032,11.515,2.5091799999999997,,12.535290000000002,5.304,14.49979
87,75,Re,7.848,-8.061,161.975844,21.905,1.256,6.24037,,8.989,-20.593,9.732,-0.76514,,17.536,7.657,17.584
86,76,Os,7.793,,161.984498,,-0.308,6.767399999999999,,8.826,,12.532,0.889,,13.009,5.1690000000000005,16.501
102,61,Pm,8.044,7.471,162.95357,9.156,,-4.586,13.236,,3.209,4.9510000000000005,10.988,21.347,10.049,8.748,-1.083
101,62,Sm,8.085,5.765,162.94555,10.191,22.71,-3.338,10.594,-18.459,-0.088,4.2620000000000005,11.639000000000001,15.661,10.226,7.146,2.06