N,Z,element,be_per_a,beta_decay_energy,atomic_mass,s2n,s2p,qa,q2b,qep,qbn,s1n,s1p,q4b,qda,qpa,qna
171,111,Rg,7.204,-1.176,282.169405,12.228,,9.64,-5.925,,-8.291,5.5680000000000005,2.92,,17.991,13.538,15.951
170,112,Cn,7.197,-4.749,282.170668,12.863,6.122,10.17,,-1.744,-10.905,7.115,3.61,,15.801,12.065,15.496
169,113,Ed,7.1770000000000005,,282.175766,13.558,4.739,10.7832,,1.139,,6.156,1.583,,18.740000000000002,13.559000000000001,17.597
172,111,Rg,7.202,-2.205,283.170995,12.159,,9.36,-5.426,,-7.767,6.591,,,16.56,13.624,
171,112,Cn,7.191,-3.221,283.173362,12.676,6.523000000000001,9.935,,,-10.311,5.561,3.603,,16.9,12.464,16.612000000000002
170,113,Ed,7.1770000000000005,,283.17682,13.246,5.168,10.507,,-0.383,,7.09,1.558,,17.398,13.874,16.467
172,112,Cn,7.19,-4.046,284.174499,12.573,,9.6,-6.376,,-10.233,7.0120000000000005,4.024,,15.456,12.112,14.761000000000001
171,113,Ed,7.173,-2.33,284.178843,13.277000000000001,5.787,10.28033,,0.022,,6.187,2.184,,18.326,13.436,16.941
170,114,Fl,7.162,,284.181344,,4.633,10.8,,0.147,,,3.074,,15.907,11.975,16.548000000000002
173,112,Cn,7.184,-2.557,285.177321,12.455,,9.3174,-5.829,,-9.489,5.4430000000000005,,,16.604,12.237,
172,113,Ed,7.173,-3.2720000000000002,285.180066,13.119,6.128,10.008700000000001,,,-9.262,6.932,2.104,,16.956,13.619,15.577
171,114,Fl,7.158,,285.183579,,5.061,10.5584,,1.169,,5.99,2.8770000000000002,,17.007,12.142,17.673000000000002
173,113,Ed,7.168,-1.758,286.182518,12.719,,9.789430000000001,,,-9.06,5.787,2.448,,18.18,13.393,16.38
172,114,Fl,7.159,,286.184406,13.291,5.3500000000000005,10.372200000000001,,-0.6890000000000001,,7.301,3.247,,15.893,11.93,15.934000000000001
174,113,Ed,7.167,-2.827,287.18384,12.628,,9.540000000000001,-6.65,,-8.599,6.84,,,16.783,13.564,
173,114,Fl,7.154,-3.823,287.186875,13.073,5.679,10.1619,,,,5.772,3.231,,17.053,12.345,17.174
172,115,Ef,7.138,,287.190978,,4.413,10.76363,,0.592,,,1.167,,17.603,13.838000000000001,16.95
174,114,Fl,7.154,-4.728,288.187916,12.873000000000001,,10.072120000000002,,,-10.924,7.102,3.492,,15.739,12.176,15.515
173,115,Ef,7.135,,288.192992,,4.822,10.7546,,1.236,,6.196,1.591,,18.708000000000002,13.632,17.686
175,114,Fl,7.148000000000001,-3.102,289.190623,12.651,,9.966190000000001,-6.963,,-10.277000000000001,5.549,,,17.03,12.414,
174,115,Ef,7.135,-3.861,289.193953,13.371,5.157,10.510700000000002,,,,7.176,1.665,,17.304000000000002,13.757,16.298000000000002
173,116,Lv,7.119,,289.198099,,4.123,11.1,,2.196,,,2.532,,17.343,,18.401
175,115,Ef,7.13,-2.3040000000000003,290.196345,13.019,,10.4544,,,-9.705,5.844,1.96,,18.562,13.685,17.295
174,116,Lv,7.12,,290.198818,,4.422,10.999979999999999,,0.34400000000000003,,7.401,2.757,,16.138,12.167,16.772000000000002
176,115,Ef,7.13,-3.3970000000000002,291.197522,12.818,,10.32,-7.8100000000000005,,-9.279,6.9750000000000005,,,17.137,13.812000000000001,
175,116,Lv,7.1160000000000005,-4.413,291.201169,13.283,4.755,10.89,,,,5.882000000000001,2.795,,17.432,12.481,17.992
174,117,Eh,7.098,,291.205906,,3.444,11.48,,1.617,,,0.687,,17.983,,17.676000000000002
176,116,Lv,7.1160000000000005,-5.3340000000000005,292.202086,13.099,,10.774379999999999,,,-11.63,7.2170000000000005,3.0380000000000003,,16.059,12.439,16.323
175,117,Eh,7.095,,292.207812,,3.896,11.38,,2.2960000000000003,,6.296,1.101,,19.088,13.912,18.556
177,116,Lv,7.111,-3.716,293.204691,12.861,,10.67942,-8.204,,-10.978,5.644,,,17.389,12.639000000000001,
176,117,Eh,7.095,-4.488,293.20868,13.558,4.184,11.2934,,,,7.2620000000000005,1.1460000000000001,,17.708000000000002,14.051,17.137
175,118,Ei,7.077,,293.213498,,3.093,11.92,,3.342,,,1.992,,17.783,,19.321
177,117,Eh,7.0920000000000005,-2.942,294.210974,13.197000000000001,,11.2026,,,-10.423,5.9350000000000005,1.437,,18.991,13.998000000000001,18.177
176,118,Ei,7.079,,294.214132,,3.356,11.840370000000002,,1.5050000000000001,,7.481,2.21,,16.598,12.527000000000001,17.722
177,118,Ei,7.075,,295.216332,13.503,3.734,11.700000000000001,,,,6.022,2.298,,17.839,12.801,18.917