N,Z,element,be_per_a,beta_decay_energy,atomic_mass,s2n,s2p,qa,q2b,qep,qbn,s1n,s1p,q4b,qda,qpa,qna
94,76,Os,7.9211279999999995,-10.567,169.963578673,20.07367,3.61108,5.53687,-17.62705,3.70266,-19.90373,11.274870000000002,2.80599,,12.57944,5.769,13.818209999999999
93,77,Ir,7.854,-7.0600000000000005,169.974922,20.836000000000002,2.1430000000000002,6.109,-19.608,7.761,-18.918,9.337,-0.074,,17.346,8.006,17.118000000000002
92,78,Pt,7.808236,-12.547,169.982502095,21.434369999999998,0.8819199999999999,6.70741,,7.13453,-22.582,11.858,1.49433,,13.07784,5.637300000000001,15.849200000000002
91,79,Au,7.73,,169.995972,,-0.336,7.17731,,11.053,,10.035,-1.4717,,17.966,7.7250000000000005,18.967
106,65,Tb,8.031,6.157,170.95273,9.846,,-2.446,10.487,,1.56,5.3790000000000004,9.941,15.179,10.832,9.196,1.355
105,66,Dy,8.063,4.33,170.94612,10.734,20.614,-1.801,7.53,-16.098,-2.0220000000000002,4.597,10.754,9.118,10.851,7.398000000000001,3.821
104,67,Ho,8.083608,3.2,170.94147149,11.86441,18.768,-1.0170000000000001,4.69134,-15.084,-2.48159,6.35159,8.145,3.30944,11.78903,8.90467,3.85
103,68,Er,8.097746,1.4913420000000002,170.938036148,12.93849,16.699720000000003,-0.21325,1.58785,-11.345,-5.99442,5.68159,8.76925,-2.2876100000000004,11.78903,7.206270000000001,6.487010000000001
102,69,Tm,8.101893,0.096512,170.936435126,14.07772,14.99106,0.6454099999999999,-1.3819000000000001,-10.26059,-6.5177,7.48576,6.39059,-7.49003,12.42361,8.64493,6.49727
101,70,Yb,8.097882,-1.4784140000000001,170.936331517,15.07188,12.96165,1.55945,-3.87546,-6.487100000000001,-10.0719,6.61421,6.799930000000001,-12.22072,12.67921,6.87017,9.33076
100,71,Lu,8.084661,-2.39705,170.93791866,15.88647,11.131120000000001,2.29033,-6.10812,-5.32151,-9.64586,8.59349,4.35345,-16.57812,13.25997,8.61756,9.130930000000001
99,72,Hf,8.066068,-3.711072,170.940492,16.85709,9.63172,2.7343200000000003,-8.34525,-1.9564000000000001,-13.365,7.248810000000001,5.41409,-21.1294,13.36402,6.50056,11.796959999999999
98,73,Ta,8.039791000000001,-4.634183,170.944476,17.57248,8.21365,3.35594,-10.46999,-1.70302,-12.50076,9.65393,2.75539,-25.30825,13.70742,8.50433,10.99398
97,74,W,8.008115,-5.83581,170.949451,18.31085,6.94714,3.95675,-12.78415,1.87879,-16.24421,7.86658,4.2374,-29.61639,13.91515,6.17187,13.920860000000001
96,75,Re,7.969412,-6.948339,170.955716,18.98368,5.53779,4.67586,-14.83826,1.59841,-15.39535,10.4084,1.24842,-33.68799,14.3784,8.506879999999999,12.790030000000002
95,76,Os,7.924204,-7.889916,170.963175348,19.72189,3.9620100000000003,5.3712,-16.832240000000002,5.6999200000000005,-19.014,8.44701,2.67772,-37.782000000000004,14.818100000000001,6.357,16.23757
94,77,Ir,7.873489,-8.942323,170.971645522,20.460820000000002,2.58073,5.994,-18.84973,5.2122,-18.184150000000002,11.124,-0.22525,,15.021469999999999,8.44724,15.02926
93,78,Pt,7.816619,-9.907407,170.981245502,21.1,1.32495,6.60738,-20.95,9.16757,-21.789,9.24183,1.399,,15.334940000000001,6.06058,18.17191
92,79,Au,7.754106,-11.043000000000001,170.991881542,21.916,0.0464,7.08523,,8.508000000000001,,11.882,-1.4479300000000002,,15.661,8.30922,16.75033
91,80,Hg,7.6850000000000005,,171.003736,,-1.415,7.6676899999999995,,12.49,,,0.057,,15.98,,20.134
107,65,Tb,8.007,8.159,171.957219,9.269,,-2.535,11.633000000000001,,2.267,3.89,,17.524,12.24,9.167,
106,66,Dy,8.05,3.474,171.94846,10.488,21.207,-2.071,8.474,,-1.562,5.892,11.266,11.246,9.425,7.183,1.79
105,67,Ho,8.066,5.0,171.94473,11.388,19.338,-1.186,5.891,-14.741,-1.836,5.0360000000000005,8.584,5.252,12.891,8.978,4.491
104,68,Er,8.09041,0.8907670000000001,171.939362344,12.51757,17.398,-0.34896,2.77183,-13.584,-5.34463,6.8359700000000005,9.25363,-0.08139,10.46587,7.17762,4.75997
103,69,Tm,8.091041,1.881067,171.938406067,13.72116,15.71364,0.26188,-0.6384,-10.14439,-6.138890000000001,6.235399999999999,6.94439,-6.0443999999999996,13.445110000000001,8.412780000000001,7.0692
102,70,Yb,8.097429,-2.519466,171.936386658,14.63416,13.72471,1.31081,-2.85322,-8.82546,-9.498370000000001,8.01995,7.33412,-10.15826,11.251209999999999,6.88382,7.3140600000000004
101,71,Lu,8.078232,-0.33375400000000005,171.939091417,15.57239,11.51807,2.1520300000000003,-5.406,-4.814649999999999,-9.375950000000001,6.978899999999999,4.71814,-15.198870000000001,14.73875,8.50564,10.18563
100,72,Hf,8.071743000000001,-5.072248,171.939449716,16.29101,10.21625,2.75476,-7.30504,-4.384390000000001,-12.75327,9.042200000000001,5.8628,-19.15838,11.614799999999999,6.546390000000001,9.62174
99,73,Ta,8.037705,-2.232791,171.944895,17.334950000000003,8.601690000000001,3.31296,-9.79287,-0.79055,-12.3152,7.68102,3.1875999999999998,-23.95061,15.634680000000001,8.250969999999999,12.40099
98,74,W,8.020175,-7.56008,171.947292,17.948990000000002,7.421270000000001,3.83845,-11.853340000000001,-0.9548099999999999,-15.91822,10.08241,4.6658800000000005,-27.990270000000002,11.751280000000001,6.057300000000001,11.2661
97,75,Re,7.971672,-4.293264000000001,171.955408079,18.76655,5.97738,4.43189,-14.15774,2.8941999999999997,-15.30648,8.358139999999999,1.7399900000000001,-32.2191,16.46453,8.24482,14.39973
96,76,Os,7.942163,-9.864473,171.960017088,19.46023,4.53095,5.22435,-16.13692,2.5532800000000004,-18.90313,11.01322,3.2825300000000004,-36.1851,12.38016,6.02944,13.32043
95,77,Ir,7.880263,-6.272449,171.970607036,20.162,3.04412,5.990600000000001,-18.06136,6.5819399999999995,-17.98098,9.03866,0.3664,,17.25768,8.207379999999999,16.67626
94,78,Pt,7.839247,-11.788914,171.977340788,20.95036,1.75861,6.46338,-20.048180000000002,5.9060500000000005,-21.61594,11.708530000000001,1.98387,,12.963000000000001,5.85097,15.262170000000001
93,79,Au,7.766158000000001,-8.259262000000001,171.989996708,21.709,0.536,6.9233,,9.80505,-20.87,9.82703,-0.86273,,17.69199,8.059000000000001,18.42223
92,80,Hg,7.713591,,171.998863391,,-0.66251,7.5238000000000005,,9.12199,,12.61,0.78542,,13.404,5.594,17.1
107,66,Dy,8.027000000000001,5.412,172.95283,9.892,,-2.211,9.715,,-0.526,4.001,11.377,13.613,10.804,7.649,3.088
106,67,Ho,8.054,4.304,172.94702,10.974,19.897000000000002,-1.447,6.906000000000001,-16.789,-0.9380000000000001,5.938,8.63,7.53,11.549,9.177,3.02
105,68,Er,8.074,2.602,172.9424,12.078,18.043,-0.482,3.8970000000000002,-12.934000000000001,-4.351,5.242,9.459,1.758,11.576,7.449,5.656
104,69,Tm,8.084463,1.295166,172.939606632,13.1884,16.31504,0.11620000000000001,0.6248600000000001,-12.061,-5.07193,6.953,7.06142,-3.8595200000000003,12.1737,8.71668,5.629020000000001
103,70,Yb,8.087427,-0.67031,172.938216215,14.38705,14.41021,0.94696,-2.13944,-8.35658,-8.88656,6.367100000000001,7.46582,-8.82384,12.36988,7.1086800000000006,8.20386
102,71,Lu,8.07903,-1.469132,172.938935822,15.19515,12.24856,1.9693800000000001,-4.48438,-6.79551,-8.55001,8.21625,4.91444,-13.32705,13.136700000000001,8.74706,8.56134
101,72,Hf,8.066016,-3.0152460000000003,172.940513,16.12307,10.682920000000001,2.5408600000000003,-6.6844,-3.44531,-12.153120000000001,7.0808800000000005,5.964770000000001,-17.97353,13.12742,6.7585,10.998540000000002
100,73,Ta,8.044064,-3.6691550000000004,172.94375,16.818900000000003,9.14608,3.26311,-8.84267,-2.94953,-11.37067,9.13788,3.2832800000000004,-22.1281,13.745610000000001,8.72137,10.556090000000001
99,74,W,8.018333,-5.1735180000000005,172.947689,17.78393,7.8739799999999995,3.5645900000000004,-11.28913,0.38587,-15.26159,7.701510000000001,4.68638,-26.784470000000002,13.703700000000001,6.2743400000000005,13.172870000000001
98,75,Re,7.983906,-6.115608,172.953243,18.44622,6.41153,4.311649999999999,-13.28543,0.48714,-14.38134,10.08808,1.7456500000000001,-30.72143,14.243030000000001,8.60102,12.230200000000002
97,76,Os,7.944033,-7.169822,172.959808375,19.278950000000002,4.93011,5.0546999999999995,-15.49535,4.36996,-18.130209999999998,8.26573,3.19012,-34.729,14.52283,6.33899,15.49898
96,77,Ir,7.898067,-8.325524,172.967505496,19.99904,3.5961,5.71588,-17.436,3.9797,-17.232830000000003,10.960379999999999,0.31356,,14.74431,8.521870000000002,14.29116
95,78,Pt,7.84542,-9.110471,172.976443315,20.615840000000002,2.2189099999999997,6.3548599999999995,-19.233,8.01196,-20.69622,8.907309999999999,1.85251,,15.179920000000001,6.281,17.62974
94,79,Au,7.7882370000000005,-10.123,172.986223808,21.412779999999998,0.99836,6.83648,,7.25796,-19.84501,11.58575,-0.98551,,15.34807,8.33081,16.174
93,80,Hg,7.7250000000000005,,172.997091,22.332,-0.182,7.37802,,11.108,,9.722,0.68,,15.564,5.90632,19.236
108,66,Dy,8.012,4.319,173.955587,9.504,,-2.416,10.579,,-0.091,5.503,,15.574,9.191,7.525,
107,67,Ho,8.033,6.26,173.95095,10.349,20.417,-1.391,8.175,,-0.107,4.4110000000000005,9.040000000000001,9.88,13.030000000000001,9.363,3.988
106,68,Er,8.064,1.915,173.94423,11.608,18.518,-0.711,4.995,-15.3,-3.765,6.367,9.888,3.895,10.245000000000001,7.434,3.886
105,69,Tm,8.070642,3.08,173.942174064,12.63277,16.959,-0.05075,1.70568,-11.803,-4.384600000000001,5.67977,7.4990000000000006,-2.1237500000000002,13.32991,8.7185,6.3008500000000005
104,70,Yb,8.083847,-1.374317,173.938867548,13.831700000000001,15.03884,0.73925,-1.10003,-10.579,-8.13491,7.464600000000001,7.97742,-6.717420000000001,11.14067,7.129840000000001,6.420850000000001
103,71,Lu,8.071453,0.27428600000000003,173.940342938,14.97685,12.773760000000001,1.80074,-3.82943,-6.60311,-8.22973,6.7606,5.307939999999999,-11.8971,14.39606,8.600670000000001,9.2865
102,72,Hf,8.068533,-4.103715,173.94004848,15.58489,11.16698,2.49452,-5.61739,-5.58223,-11.519260000000001,8.504010000000001,6.25254,-15.84907,11.6023,6.84797,9.10873
101,73,Ta,8.040452,-1.513678,173.944454,16.55342,9.58273,3.14054,-8.06767,-2.14882,-11.084700000000002,7.4155500000000005,3.61795,-20.87727,15.37227,8.55463,11.73403
100,74,W,8.027256000000001,-6.553992,173.946079,17.272540000000003,8.4028,3.6018499999999998,-10.231670000000001,-2.10427,-14.74454,9.57102,5.1195200000000005,-24.90893,11.8137,6.35724,10.85066
99,75,Re,7.985094,-3.677681,173.953115,18.27862,6.921060000000001,4.03965,-12.809600000000001,1.4344700000000001,-14.30616,8.19055,2.23468,-29.438000000000002,16.1349,8.27705,13.69358
98,76,Os,7.959461,-9.131924000000001,173.957063152,18.89421,5.47617,4.8705,-14.67725,1.443,-17.7983,10.62848,3.7305200000000003,-33.35441,12.2525,6.11892,12.73708
97,77,Ir,7.902483,-5.545329,173.966866676,19.626759999999997,3.90433,5.62479,-16.628,5.4014,-16.9919,8.66637,0.71421,,17.09116,8.3025,16.03319
96,78,Pt,7.866117,-11.083,173.972819832,20.35388,2.65226,6.1831700000000005,-18.67715,4.83112,-20.55704,11.44657,2.3387,,12.77201,5.9579200000000005,14.630180000000001
95,79,Au,7.798,-7.594,173.984718,21.06,1.434,6.69929,,8.744,-19.597,9.474,-0.419,,17.582,8.098,17.823
94,80,Hg,7.749784,,173.992870583,21.7249,0.11203,7.233270000000001,,8.01293,,12.003,1.09754,,13.3878,5.785340000000001,16.475099999999998
108,67,Ho,8.019,5.449,174.95362,9.995000000000001,,-1.596,9.108,,0.675,5.5840000000000005,9.121,11.963000000000001,11.447000000000001,9.671,2.294
107,68,Er,8.045,3.6590000000000003,174.94777,11.141,19.291,-0.888,6.0440000000000005,-14.57,-2.859,4.774,10.251,5.83,11.409,7.696,5.0040000000000004
106,69,Tm,8.061766,2.3850000000000002,174.943842313,12.197120000000002,17.538,-0.21651,2.85503,-13.91,-3.43735,6.51735,7.65,0.09809999999999999,12.054,9.037120000000002,4.82
105,70,Yb,8.070925,0.47003300000000003,174.94128191,13.286959999999999,15.619,0.59849,-0.21389,-10.035,-7.19667,5.82235,8.12001,-5.06275,12.27132,7.542890000000001,7.43447
104,71,Lu,8.06914,-0.68392,174.940777308,14.427299999999999,13.487459999999999,1.6198,-2.75693,-8.590040000000002,-7.39242,7.6667,5.51004,-9.877270000000001,13.09645,8.95392,7.8552
103,72,Hf,8.060761000000001,-2.073015,174.941511527,15.21251,11.508379999999999,2.40023,-4.84887,-4.82612,-10.812209999999999,6.7085,6.2004399999999995,-14.376290000000001,13.110059999999999,7.11837,10.42019
102,73,Ta,8.044445,-2.775852,174.943737,16.15474,10.10567,2.99483,-7.120340000000001,-4.12742,-10.25288,8.7392,3.85314,-19.01414,13.713940000000001,8.857629999999999,9.97373
101,74,W,8.024112,-4.344488,174.946717,17.04805,8.798950000000001,3.3736300000000004,-9.527420000000001,-1.07728,-14.031020000000002,7.47702,5.181,-23.919330000000002,13.474549999999999,6.56124,12.41583
100,75,Re,7.994816,-5.182931,174.951381,17.877080000000003,7.46971,4.0070500000000004,-11.893799999999999,-0.83651,-13.36421,9.686530000000001,2.35019,-27.884349999999998,14.14988,8.672930000000001,11.68807
99,76,Os,7.960729000000001,-6.71087,174.956945105,18.80975,5.95593,4.5558000000000005,-14.39191,2.83274,-17.313200000000002,8.18128,3.72125,-32.1328,14.1593,6.29579,14.638209999999999
98,77,Ir,7.91791,-7.68104,174.964149521,19.26871,4.41858,5.43086,-15.990549999999999,2.98962,-16.147660000000002,10.60233,0.68806,,14.75456,8.71339,13.789
97,78,Pt,7.869548,-8.309511,174.972395457,19.91319,2.8531500000000003,6.16356,-17.74089,6.992979999999999,-19.549,8.46662,2.1389400000000003,,15.265780000000001,6.52996,17.17678
96,79,Au,7.817595000000001,-9.431379000000002,174.981316085,20.714150000000004,1.71346,6.58315,,6.17057,-18.83426,11.24,-0.62524,,15.24976,8.567020000000001,15.62182
95,80,Hg,7.759231,,174.991441086,21.406,0.60761,7.07221,,10.05662,,9.40288,1.026,,15.57067,6.20948,18.78075
109,67,Ho,7.997,7.34,175.95782,9.743,,-1.865,10.081,,1.29,4.159,,14.092,12.791,9.512,
108,68,Er,8.034,2.741,175.94994,10.824,19.838,-1.046,6.861,,-2.391,6.05,10.717,7.946,9.77,7.5840000000000005,2.954
107,69,Tm,8.045121,4.12,175.946997711,11.64944,18.259,-0.313,4.0109200000000005,-13.458,-2.74708,5.13208,8.008000000000001,1.99406,13.289,9.147,5.626
106,70,Yb,8.064085,-0.10907800000000001,175.942574708,12.689440000000001,16.12,0.56738,1.08501,-12.128,-6.39705,6.86708,8.46974,-2.84971,11.084,7.6288,5.809
105,71,Lu,8.05902,1.194085,175.942691809,13.95468,14.09567,1.5672300000000001,-2.01686,-8.36066,-6.97189,6.2879700000000005,5.97566,-8.31935,14.27308,9.033040000000002,8.52022
104,72,Hf,8.061359000000001,-3.210948,175.941409905,14.87447,12.20975,2.25421,-3.93472,-7.16974,-10.23899,8.16598,6.6997100000000005,-12.47838,11.70468,7.1686499999999995,8.62131
103,73,Ta,8.03867,-0.7237709999999999,175.944857,15.76724,10.373120000000002,2.94569,-6.30249,-3.48876,-9.8039,7.02804,4.172680000000001,-17.48705,15.18991,8.910459999999999,11.161940000000001
102,74,W,8.030112,-5.578718,175.945634,16.55715,9.37506,3.33571,-8.543660000000001,-3.44891,-13.424610000000001,9.080129999999999,5.52193,-21.70774,11.80997,6.61899,10.41658
101,75,Re,7.99397,-2.964945,175.951623,17.53242,7.900060000000001,3.84218,-11.18456,0.05679,-13.028830000000001,7.845899999999999,2.71906,-26.541919999999998,15.875010000000001,8.52855,12.98005
100,76,Os,7.972679,-8.219614,175.954806,18.24516,6.44879,4.57433,-13.16407,0.24588,-16.77475,10.06388,4.0986,-30.312990000000003,12.28596,6.319979999999999,12.27584
99,77,Ir,7.921531,-4.944459,175.963630119,19.15747,4.78317,5.23386,-15.357360000000002,4.12101,-16.23618,8.55514,1.0619200000000002,-34.45992,16.827900000000003,8.42399,15.321940000000001
98,78,Pt,7.888992,-10.412904000000001,175.968938214,19.75834,3.51639,5.88506,-17.14892,3.88254,-19.60123,11.29172,2.82833,,12.64043,6.19862,14.15079
97,79,Au,7.8253829999999995,-6.736013,175.980116927,20.428,2.23541,6.43349,-19.10256,7.58457,-18.6197,9.18833,0.09647,,17.50801,8.286,17.39387
96,80,Hg,7.782665,-12.366544,175.987348335,21.28658,1.04473,6.89705,,6.639550000000001,,11.883690000000001,1.66997,,13.161,5.9115400000000005,15.80436
95,81,Tl,7.707955,,176.000624367,,-0.23900000000000002,7.47468,,10.69658,,,-1.2652,,17.93341,8.155,19.06044
109,68,Er,8.013,4.611,176.95399,10.349,,-1.344,8.128,,-1.558,4.299,10.857000000000001,10.023,11.055,7.696,4.159
108,69,Tm,8.035,3.517,176.94904,11.301,18.844,-0.543,4.915,-15.467,-2.049,6.1690000000000005,8.127,4.246,11.894,9.345,3.867
107,70,Yb,8.049973,1.3974090000000001,176.945263848,12.43348,16.912,0.243,1.89422,-11.645,-5.675479999999999,5.5664,8.90405,-1.2846700000000002,12.03496,7.742170000000001,6.609
106,71,Lu,8.053448000000001,0.49681000000000003,176.943763668,13.36086,14.651200000000001,1.4473399999999998,-0.6691900000000001,-10.301459999999999,-5.8788,7.07289,6.18146,-6.1146400000000005,13.022549999999999,9.424760000000001,7.12711
105,72,Hf,8.051835,-1.166,176.94323032,14.541590000000001,12.763010000000001,2.24569,-3.17889,-6.67827,-9.58656,6.37561,6.787350000000001,-10.92415,12.99577,7.55363,9.7103
104,73,Ta,8.040827,-2.01289,176.944482073,15.4486,11.12698,2.7413800000000004,-5.44545,-5.6213500000000005,-9.14433,8.42056,4.42726,-15.667190000000002,13.47785,8.993920000000001,9.50198
103,74,W,8.025035,-3.432555,176.946643,16.21156,9.79801,3.2851399999999997,-7.74526,-2.41437,-12.71016,7.13144,5.625319999999999,-20.33128,13.41773,6.9031,11.78916
102,75,Re,8.001222,-4.312708,176.950328,17.1235,8.43846,3.70245,-10.22175,-2.19277,-12.24255,9.277600000000001,2.91654,-24.72407,14.074430000000001,8.82197,11.118
101,76,Os,7.972436,-5.909041,176.954957882,17.993720000000003,6.90161,4.346010000000001,-12.586020000000001,1.3961700000000001,-16.14945,7.92984,4.18255,-29.17392,14.04265,6.58069,13.91703
100,77,Ir,7.934632,-6.676976,176.9613015,18.79555,5.3370500000000005,5.08153,-14.50232,1.72649,-15.184870000000002,10.24041,1.23845,-32.70689,14.76876,8.81205,13.27208
99,78,Pt,7.892488999999999,-7.825341000000001,176.968469529,19.79961,3.8430100000000005,5.6429,-16.5879,5.43853,-18.9208,8.50789,2.7810900000000003,,14.73487,6.357100000000001,16.27137
98,79,Au,7.843858,-8.762561,176.976870379,20.28378,2.72854,6.29842,-18.204580000000004,5.04425,-17.831470000000003,11.09546,-0.09979,,14.87917,8.637120000000001,14.96479
97,80,Hg,7.789932,-9.442016,176.986277376,20.9526,1.64702,6.73545,,8.862350000000001,-21.43545,9.06891,1.55055,,15.33222,6.317,18.18202
96,81,Tl,7.7321670000000005,,176.996413797,,0.51451,7.067,,7.89147,,11.993440000000001,-1.15545,,15.342860000000002,8.16454,16.541
110,68,Er,7.9990000000000006,3.855,177.956779,9.772,,-1.315,9.435,,-0.862,5.473,,12.175,9.741,7.807,
109,69,Tm,8.016,5.58,177.95264,10.887,19.403,-0.851,6.222,,-1.2,4.718,8.546,6.4830000000000005,13.226,9.4,4.734
108,70,Yb,8.042841000000001,0.642309,177.94664971,12.34679,17.643,-0.171,2.7397600000000004,-14.126,-5.3829899999999995,6.780390000000001,9.516,0.7114600000000001,10.38665,7.4791300000000005,4.603
107,71,Lu,8.042054,2.097451,177.945960162,13.098180000000001,15.544410000000001,1.10181,0.26,-10.158,-5.52849,6.0253000000000005,6.640359999999999,-4.68433,13.86434,9.22182,7.61917
106,72,Hf,8.049442,-1.837,177.943708456,14.00155,13.52186,2.08436,-2.0283,-8.73781,-8.79194,7.62594,7.3404,-8.89097,11.65781,7.594399999999999,7.90671
105,73,Ta,8.035,-0.191,177.945681,15.375,11.794,2.547,-4.945,-5.503,-8.968,6.955,5.007,-14.346,14.689,8.747,10.214
104,74,W,8.029257,-4.753483,177.945885925,15.907969999999999,10.40856,3.01263,-6.8626700000000005,-4.81529,-12.20908,8.776530000000001,5.98129,-18.409419999999997,11.66924,6.86577,9.721129999999999
103,75,Re,7.998157,-2.1091830000000003,177.950989,16.7332,8.86602,3.6624000000000003,-9.40157,-1.22781,-11.76831,7.4556000000000004,3.2407,-23.349709999999998,15.69896,8.843399999999999,12.4016
102,76,Os,7.981912,-7.2923860000000005,177.9532533,17.58896,7.4806099999999995,4.257899999999999,-11.54675,-1.13152,-15.56817,9.65913,4.56407,-27.228369999999998,12.229420000000001,6.608090000000001,11.73493
101,77,Ir,7.936549,-4.254365,177.961082,18.516189999999998,5.76694,4.996300000000001,-13.94814,2.72832,-14.952760000000001,8.275780000000001,1.5843900000000002,-31.462,16.55686,8.71755,14.68282
100,78,Pt,7.908252000000001,-9.693776,177.965649248,19.206290000000003,4.47752,5.572979999999999,-15.68162,2.6699699999999997,-18.52373,10.69839,3.2390700000000003,-35.57181,12.591610000000001,6.26104,13.75426
99,79,Au,7.849398,-5.987841,177.976055945,19.92541,3.0033600000000003,6.13483,-17.513,6.45471,-17.59252,8.82996,0.22227000000000002,,17.34093,8.27378,16.73716
98,80,Hg,7.811363,-11.526,177.982484158,20.67359,1.95998,6.577350000000001,-19.8902,5.765569999999999,-21.046689999999998,11.60468,2.05977,,12.915870000000002,5.95211,15.04397