N,Z,element,be_per_a,beta_decay_energy,atomic_mass,s2n,s2p,qa,q2b,qep,qbn,s1n,s1p,q4b,qda,qpa,qna
143,92,U,7.5909151,-0.1242619,235.043928117,12.1429649,12.3908022,4.6780559,-1.2635640000000001,-6.9831468999999995,-7.1073413,5.2974952,6.7090586000000005,-7.095,14.140179,9.8362888,11.118474599999999
142,93,Np,7.5870571,-1.1393021,235.044061518,13.0481227,11.024308300000001,5.1937905,-3.5815579,-6.5847967,-7.3782602,6.983079399999999,4.3908863,-11.727,14.8347402,11.297654200000002,10.7428977
141,94,Pu,7.5788799000000004,-2.4422558,235.045284609,14.0121253,9.3147069,5.951478900000001,-5.831,-3.2515841,-10.351,6.238957999999999,5.0614303000000005,,14.9446226,9.687,13.2193033
140,95,Am,7.5651582,-3.3890000000000002,235.047906478,14.803,7.9018708,6.5759999,-8.145,-2.6191745,-10.1691269,7.908,3.0143552000000002,,15.2835736,11.1277427,12.912
139,96,Cm,7.547000000000001,-4.757,235.051545,15.422,6.6160000000000005,7.28,,0.375,-13.453,6.78,3.737,,15.439,9.458,15.299
138,97,Bk,7.524,,235.056651,16.144000000000002,5.093,7.9350000000000005,,1.02,,8.697000000000001,1.241,,16.188,11.301,14.997
147,89,Ac,7.5592423,4.9657951,236.054988,9.762833,,2.7232474000000004,5.8870427,,-0.8680742,4.2074805,7.198,7.8429041,15.001175400000001,11.750991,7.9473475
146,90,Th,7.5769687999999995,0.9212477,236.049657,10.5003917,15.2533688,3.3333314,3.8106206000000005,-12.163,-4.1050162,5.8338692000000005,8.390928599999999,3.3536943999999997,12.1248151,9.8112204,7.567543
145,91,Pa,7.5775573000000005,2.889373,236.048668,11.147551100000001,14.0851817,3.754616,1.9558613,-9.312176299999999,-3.6561455,5.0262638,5.9727699,-0.707,15.4318038,11.466367700000001,9.672319700000001
144,92,U,7.5864854,-0.9335116000000001,236.04556613,11.8430136,12.7463183,4.5729562,-0.45692630000000006,-8.8621429,-6.6697803,6.5455184,7.1332898,-5.4082381999999996,12.816519099999999,9.819226800000001,9.359341800000001
143,93,Np,7.5792148,0.4765854,236.046568296,12.7193481,11.5387184,5.006629,-2.662,-6.1997782,-6.8755708,5.7362687,4.829659800000001,-10.164,15.9439412,11.3230377,11.5350854
142,94,Pu,7.5779192,-3.1390000000000002,236.046056661,13.5911142,9.8213933,5.8671471,-4.951311899999999,-5.3062452,-9.794412000000001,7.3521562000000005,5.4305071,,13.6575097,9.817032600000001,11.6287993
141,95,Am,7.561,-1.812,236.049427,14.564,8.492,6.2561998999999995,-7.501,-2.291,-10.044,6.655,3.431,,16.401,10.853,13.738
140,96,Cm,7.550309,-5.689,236.051372112,15.0122269,7.0751083,7.066989700000001,,-1.6184973,-12.989,8.232,4.0607531,,14.102,9.432,13.4473868
139,97,Bk,7.523000000000001,,236.057479,15.996,5.498,7.697,,1.6280000000000001,,7.3,1.7610000000000001,,17.53,11.112,15.903
148,89,Ac,7.55,4.065,237.057993,9.48,,2.6750000000000003,6.493,,-0.306,5.272,,9.149000000000001,13.601,11.954,
147,90,Th,7.5634433,2.4274736,237.053629,10.2052927,15.753,3.1961195,4.5649641,,-3.4501758000000002,4.3714235,8.554871499999999,4.863434900000001,13.3087441,9.9779578,8.6708701
146,91,Pa,7.5703847,2.1374904999999997,237.051023,10.903913300000001,14.4074787,3.7946703000000004,2.6560243,-10.9823452,-2.9882765,5.8776495,6.016550100000001,0.9580000000000001,14.2206768,11.778720600000002,8.332831200000001
145,92,U,7.5761026000000005,0.5185338,237.048728309,11.6712854,13.2055628,4.2335748,0.2984708,-8.1540406,-6.0592786,5.1257668999999995,7.232792900000001,-3.8570183000000005,13.8120394,9.9153184,10.423577100000001
144,93,Np,7.5749895,-0.22006299999999998,237.04817164,12.3140811,11.9952436,4.957273,-1.698,-7.7513267,-6.101227,6.5778124,4.8619538,-8.338000000000001,14.663623900000001,11.590695,10.1791315
143,94,Pu,7.5707599000000005,-1.478,237.048407888,13.2333202,10.4050622,5.7476353,-4.1554891,-4.6418908000000005,-9.02,5.881164,5.5754024,-12.846593,14.759425100000001,10.0009119,12.593105
142,95,Am,7.561,-2.677,237.049995,14.198,9.051,6.196,-6.640000000000001,-4.097,-9.354000000000001,7.542,3.621,,15.098,11.084,12.261000000000001
141,96,Cm,7.5466241,-3.963,237.052868988,14.909,7.5131371,6.7703999,-8.6911039,-0.9433279,-12.366,6.6769869,4.082,,15.3333562,9.65,14.5435672
140,97,Bk,7.527,-4.728,237.057123,15.703000000000001,5.993,7.5,,-0.12,,8.403,1.932,,15.907,11.351,14.395
139,98,Cf,7.5033507,,237.062199272,,4.6530000000000005,8.219999900000001,,2.796464,,,2.892,,15.879,9.407,16.8622465
147,91,Pa,7.5583449,3.5863111,238.054637,10.5825478,14.9048966,3.6279328,3.4394459000000004,-10.415000000000001,-2.5674079,4.7048984,6.350025,2.4726217999999998,15.3496477,11.7403447,9.1832853
146,92,U,7.5701262,-0.1468652,238.050786936,11.2794859,13.5254126,4.2698581,1.1445839000000002,-9.9363361,-5.6351852000000004,6.153719000000001,7.5088625,-2.1374711000000004,12.684584300000001,9.8828866,8.936380600000001
145,93,Np,7.566222,1.2914491000000001,238.050944603,12.0661324,12.4572997,4.6908116,-0.966824,-7.3619972,-5.7083829999999995,5.48832,5.2245068,-6.7620000000000005,15.7208224,11.3998702,10.8120988
144,94,Pu,7.568361100000001,-2.2582731,238.049558175,12.8809961,10.8593759,5.5932729,-3.2820549999999997,-6.5159559,-8.478,6.9998321,5.9974221,-11.114,13.495861699999999,9.9841592,10.890768099999999
143,95,Am,7.5555853,-1.0237818,238.051982531,13.762,9.5346143,6.041699899999999,-5.795,-3.7391489,-8.897048000000002,6.22,3.9592118999999997,,16.2307202,11.103130199999999,13.0247793
142,96,Cm,7.5479966,-4.771,238.053081606,14.5502531,8.0342471,6.670301,-7.832,-2.9354301,-11.836,7.8732662,4.413,,14.115,9.6846563,12.9092591
141,97,Bk,7.525,-3.061,238.058204,15.468,6.402,7.33,,0.358,-11.793000000000001,7.065,2.32,,17.074,11.067,15.238
140,98,Cf,7.509,,238.06149,,5.1530000000000005,8.13,,0.741,,8.732,3.221,,14.447000000000001,9.372,14.91
149,90,Th,7.54,3.162,239.060655,9.598,,2.945,5.9270000000000005,,-2.466,4.096,,7.912,13.19,10.143,
147,92,U,7.5585624,1.2616634,239.054291989,10.960101199999999,13.9603713,4.129998400000001,1.9844482,-9.241,-4.9532474,4.8063822,7.610346300000001,-0.5742940999999999,13.7558515,10.1027683,9.9638676
146,93,Np,7.560568,0.7227849000000001,239.052937538,11.7032307,12.794561,4.5971881,-0.0793554,-8.8720096,-4.9234615999999995,6.2149108,5.2856986,-4.939,14.631678599999999,11.7304779,9.623451900000001
145,94,Pu,7.5603187,-0.8021402000000001,239.052161596,12.646078600000001,11.3798554,5.244521600000001,-2.5587424000000003,-6.0084834,-7.9045197,5.6462465,6.1553486,-9.614,14.427427600000001,10.0741814,11.790040000000001
144,95,Am,7.5536891,-1.7566021,239.053022729,13.322000000000001,10.0591814,5.9223999,-4.859,-5.353208400000001,-8.1261613,7.1023794,4.0617593,-14.24,15.0095048,11.352907,11.6586686
143,96,Cm,7.543065899999999,-3.103,239.054908519,14.242825300000002,8.5226422,6.5396999,-7.055,-2.3051570999999997,-11.141,6.369559100000001,4.5634303,,15.288,9.97,13.891856100000002
142,97,Bk,7.527,-3.952,239.058239,15.103,6.898000000000001,7.2,-9.381,-1.461,-11.099,8.038,2.485,,15.713000000000001,11.261000000000001,13.855
141,98,Cf,7.507000000000001,-5.429,239.062482,15.879,5.623,7.763450700000001,,1.468,,7.147,3.3040000000000003,,15.703000000000001,9.524000000000001,15.995000000000001
140,99,Es,7.481,,239.06831,,4.157,8.435,,2.125,,,0.936,,16.403,,15.735000000000001
149,91,Pa,7.537,4.295,240.061203,10.026,,3.364,4.694,,-1.6340000000000001,4.398,6.779,5.5,15.196,11.919,8.636000000000001
148,92,U,7.5517705,0.3992685,240.056592411,10.734871,14.387,4.0353789,2.590178,-11.073,-4.6668254,5.9284888,7.9110000000000005,0.9912751,12.5322611,10.051929,8.406802299999999
147,93,Np,7.5501743,2.1909095,240.056163778,11.2810047,13.155756499999999,4.557358000000001,0.8061193,-8.31,-4.3433090000000005,5.0660939,5.5454102999999995,-3.348,15.719303700000001,11.7901509,10.4350075
146,94,Pu,7.556043300000001,-1.3847901999999999,240.05381174,12.1804651,11.760355,5.2558215,-1.5989029000000001,-7.7363198,-7.3363588,6.5342186,6.4746564,-7.8634001,13.381529,10.1177752,10.3815884
145,95,Am,7.5470136000000005,-0.2141127,240.055298374,13.053948,10.52243,5.7071000000000005,-4.154,-5.0898662,-7.7081707,5.9515686,4.3670814,-12.715,16.0577683,11.2825024,12.2849124
144,96,Cm,7.5428617000000004,-3.94,240.055528233,13.8636172,9.016868200000001,6.3977981,-6.2644972,-4.152968700000001,-10.597,7.494058,4.9551089,,14.0136078,10.019,12.278962100000001
143,97,Bk,7.523000000000001,-2.324,240.059758,14.695,7.335,7.199,-8.561,-1.0150000000000001,-10.609,6.657,2.7720000000000002,,16.93,11.281,14.741
142,98,Cf,7.51024,-6.237,240.062253447,15.431000000000001,6.0344259000000005,7.7109834,,-0.4472138,-13.713000000000001,8.284,3.5500000000000003,,14.483,9.643,14.3879702
141,99,Es,7.481,,240.068949,,4.569,8.2587789,,2.6870000000000003,,7.476,1.2650000000000001,,17.659,11.151,16.662
150,91,Pa,7.5280000000000005,3.543,241.064134,9.74,,3.295,5.425,,-1.046,5.341,,6.806,13.951,12.08,
149,92,U,7.539000000000001,1.8820000000000001,241.06033,10.518,14.881,3.817,3.242,,-4.191,4.59,8.102,2.495,13.57,10.167,9.319
148,93,Np,7.5440426,1.36,241.058309671,11.1385254,13.6,4.3625758999999995,1.3807799,-9.984,-3.881522,6.0724314999999995,5.6893530000000005,-1.666,14.453254300000001,11.871438399999999,9.0674743
147,94,Pu,7.546439500000001,0.0207799,241.056849651,11.775740599999999,12.1954948,5.140066399999999,-0.7466547000000001,-7.049353,-6.6263122,5.241522,6.6500846000000005,-6.372,14.3549177,10.3645732,11.2937854
146,95,Am,7.5432795,-0.7674346000000001,241.056827343,12.5986607,10.9546114,5.6378203000000005,-3.0460000000000003,-6.6708644999999995,-6.8612048,6.6470921,4.4799549,-10.959,15.0569227,11.6352424,11.1261403
145,96,Cm,7.5368488,-2.279,241.057651218,13.5878283,9.4643919,6.1851918999999995,-5.625,-3.7125204,-10.034,6.0937702,5.0973105,-15.518,15.022217000000001,10.144403800000001,13.185024
144,97,Bk,7.524,-3.346,241.060098,14.411,7.988,6.986,-7.913,-2.818,-10.079,7.755,3.033,,15.545,11.4,13.206
143,98,Cf,7.507000000000001,-4.567,241.06369,15.018,6.398000000000001,7.655,-9.894,0.314,-12.97,6.7330000000000005,3.626,,15.788,9.974,15.528
142,99,Es,7.485,-5.327,241.068592,15.88,4.934,8.2586223,,0.9400000000000001,,8.403,1.3840000000000001,,16.402,11.48,15.323
141,100,Fm,7.4590000000000005,,241.074311,,3.56,8.857,,3.943,,,2.294,,16.301000000000002,,17.589
150,92,U,7.532,1.203,242.062931,10.238,,3.67,3.903,,-3.767,5.649,8.41,3.8160000000000003,12.32,10.147,7.766
149,93,Np,7.5334042,2.7,242.061639548,11.041988799999999,14.171000000000001,4.0979171,1.9488626999999998,-9.613,-3.6095572000000002,4.969557200000001,6.069,-0.335,15.4121859,11.7082633,9.726
148,94,Pu,7.5413284,-0.7511373,242.058740979,11.5510792,12.5765633,4.9842281999999996,-0.0868228,-8.769,-6.2887773,6.3095572,6.8872102,-4.6701055,13.111454400000001,10.269926700000001,9.7906103
147,95,Am,7.5349917,0.6643144999999999,242.059547358,12.1847321,11.426157400000001,5.5885003,-2.2840000000000003,-6.1360729,-6.3050745,5.537640000000001,4.7760729,-9.333,16.0535012,11.743848900000001,11.8034111
146,96,Cm,7.534504,-2.948,242.058834187,13.063159299999999,9.8995624,6.2156349,-4.5832827,-5.4403874,-9.248,6.9693890000000005,5.419607500000001,-13.596,14.0043966,10.277394200000002,11.8618814
145,97,Bk,7.519,-1.635,242.061999,14.055,8.336,6.906000000000001,-7.05,-2.471,-9.646,6.3,3.239,,16.738,11.469,14.008000000000001
144,98,Cf,7.5090991,-5.414,242.063754544,14.7443738,6.9151826000000005,7.5168626000000005,-9.013,-1.6037594,-12.578,8.011000000000001,3.883,,14.434000000000001,10.002,13.8864218
143,99,Es,7.4830000000000005,-3.598,242.069567,15.567,5.441,8.1601152,,1.532,-12.49,7.163,1.814,,17.524,11.464,16.198
142,100,Fm,7.465,,242.07343,,4.167,8.697000000000001,,1.784,,8.892,2.783,,14.885,9.633000000000001,15.844000000000001
151,92,U,7.518,2.674,243.067075,9.86,,3.555,4.7250000000000005,,-3.008,4.211,,5.298,13.450000000000001,10.334,
150,93,Np,7.526,2.051,243.064204,10.652000000000001,14.512,4.0440000000000005,2.6310000000000002,,-2.982,5.682,6.103,1.116,14.32,11.954,8.442
149,94,Pu,7.5310087,0.5795559,243.062002068,11.343190199999999,13.02,4.7569774,0.5726257,-8.154,-5.7847703,5.033633,6.9512860000000005,-3.235,14.150253000000001,10.302387699999999,10.6854662
148,95,Am,7.5301742,-0.0069302,243.061379889,11.9019662,11.718052100000001,5.4390849,-1.5146239000000001,-7.5308419,-5.7000117,6.364326200000001,4.8308419,-7.572,14.9306971,11.9137413,10.5051788
147,96,Cm,7.5269261,-1.5076936,243.061387329,12.6624705,10.3511219,6.1687999,-3.8080000000000003,-4.8239117,-8.641,5.693081500000001,5.575049,-12.134,14.9584072,10.5358813,12.7030185
146,97,Bk,7.5175021,-2.3000000000000003,243.063005905,13.434000000000001,8.8226483,6.8743533,-6.057,-4.0673554,-8.7686705,7.134,3.4030409,,15.6986662,11.8294622,12.825921899999999
145,98,Cf,7.505,-3.757,243.065475,14.48,7.29,7.418,-8.326,-1.103,-11.883000000000001,6.468,4.051,,15.72,10.19,14.912
144,99,Es,7.486,-4.569,243.069508,15.289,5.812,8.0721077,,-0.294,-11.724,8.126,1.929,,16.131,11.622,14.729000000000001
143,100,Fm,7.464,,243.074414,16.047,4.589,8.6891999,,2.64,,7.155,2.774,,16.133,9.955,16.974
151,93,Np,7.514,3.434,244.067891,10.319,,3.805,3.361,,-2.586,4.6370000000000005,6.529,2.5260000000000002,15.331,11.907,9.146
150,94,Pu,7.5248154000000005,-0.07311430000000001,244.064204401,11.0534915,13.392,4.6656077,1.3541857,-9.963000000000001,-5.4403026,6.019858500000001,7.289000000000001,-1.6720753,13.0999517,10.3549607,9.255
149,95,Am,7.5213095,1.4273,244.064282892,11.7315145,12.1156832,5.1379904,-0.8346902,-7.216,-5.3741186,5.3671883,5.164397200000001,-6.146,15.8730659,11.788075000000001,11.210422000000001
148,96,Cm,7.5239527,-2.2619902,244.062750622,12.4945,10.8429832,5.9015999,-3.026261,-6.5916972,-8.3091122,6.8014186,6.012141300000001,-10.512,13.6946286,10.3815549,11.143122
147,97,Bk,7.511475900000001,-0.7642709,244.065178969,13.181000000000001,9.3321304,6.7787999,-5.312,-3.7501512,-8.347,6.047122000000001,3.7570814,-14.883000000000001,16.6209333,11.876110500000001,13.425892099999999
146,98,Cf,7.5051373,-4.547,244.065999447,14.0515217,7.903545,7.3289581,-7.486,-2.9928105,-11.34,7.583,4.500504200000001,,14.437000000000001,10.361,13.422728300000001
145,99,Es,7.4830000000000005,-2.938,244.070881,14.919,6.304,7.936,-9.572000000000001,0.047,-11.362,6.792,2.253,,17.349,11.563,15.691
144,100,Fm,7.468,-6.634,244.074036,15.579,5.001,8.55,,0.685,,8.424,3.072,,14.873000000000001,9.934000000000001,15.283
152,93,Np,7.506,2.672,245.070693,10.098,,3.685,3.95,,-2.027,5.461,,4.0360000000000005,14.081,12.094,
151,94,Pu,7.5132822,1.2777559,245.067824554,10.7190247,13.88,4.556,2.1736487,,-4.7722804,4.6991662,7.351,-0.2069786,14.083,10.6253517,10.205
150,95,Am,7.5153043,0.8958929000000001,245.066452827,11.417224599999999,12.483,5.1603857,0.08664100000000001,-8.629,-4.6227363,6.0500362999999995,5.1945749999999995,-4.415,14.8566626,12.047595900000001,10.1299429
149,96,Cm,7.5157677000000005,-0.8092519,245.065491047,12.3200477,11.3279794,5.6244928000000005,-2.3806273,-6.0904679,-7.7806194,5.5186292,6.1635822,-9.187,14.5403257,10.4005657,11.93405
148,97,Bk,7.509271399999999,-1.5713755,245.066359814,13.0184895,9.9391716,6.4545246,-4.501,-5.3543303,-7.7356383,6.9713675,3.9270303,-13.511000000000001,15.342647300000001,11.8741321,11.9921646
147,98,Cf,7.4996643999999995,-2.93,245.068046755,13.747,8.3747264,7.258465500000001,-6.807,-2.3556548,-10.712,6.1642629,4.617645,,15.4063291,10.497,14.2278545
146,99,Es,7.485,-3.8770000000000002,245.071192,14.574,6.953,7.9093581,-9.01,-1.688,-10.72,7.782,2.452,,16.036,11.792,14.21
145,100,Fm,7.465,-5.133,245.075354,15.267,5.376,8.44,,1.425,-13.477,6.843,3.123,,16.156,10.254,16.451
144,101,Md,7.441,,245.080864,,4.0,9.006,,2.0100000000000002,,8.344,0.928,,16.72,11.789,16.17
152,94,Pu,7.5065401000000005,0.401,246.070204172,10.553884700000001,,4.3500000000000005,2.7778604999999996,,-4.5769627,5.8547185,7.744,1.3045447,12.866,10.453,8.561
151,95,Am,7.505,2.3770000000000002,246.069774,11.028,12.824,5.152,1.027,-8.145,-4.082,4.978,5.473,-2.825,15.899000000000001,12.103,10.834
150,96,Cm,7.5114716,-1.35,246.067222016,11.9775595,11.767051200000001,5.4751197000000005,-1.4733159,-7.850232,-7.2681822,6.4589303000000005,6.5724762000000005,-7.5742748,13.4485837,10.305961600000002,10.508752699999999
149,97,Bk,7.5028035,-0.1233159,246.0686713,12.8895497,10.4901655,6.0739824,-3.85189,-5.2224762,-7.489557700000001,5.9181822,4.3265833,-12.148,16.2258837,11.6490313,12.438308600000001
148,98,Cf,7.499122000000001,-3.7285741,246.068803685,13.5305047,8.939549600000001,6.8616127,-6.1009589,-4.2032675,-10.296,7.3662418,5.0125193,,14.087209300000001,10.264653599999999,12.5546942
147,99,Es,7.4807849,-2.3723848,246.072806474,14.349,7.4729657,7.642,-8.296,-1.2839452000000002,-10.444,6.567,2.8553207000000005,,17.0515126,11.693,14.7755747
146,100,Fm,7.4679608,-5.924,246.075353334,14.915000000000001,5.8648517,8.379289,,-0.48293590000000003,-13.205,8.072000000000001,3.4130000000000003,,14.876,10.309000000000001,14.848
145,101,Md,7.441,,246.081713,15.625,4.488,8.8887896,,2.511,,7.281000000000001,1.365,,17.862000000000002,11.663,17.015
153,94,Pu,7.493,2.057,247.0743,10.111,,4.305,3.677,,-3.855,4.256,,3.101,14.071,10.834,
152,95,Am,7.4990000000000006,1.62,247.072092,10.89,13.275,4.922,1.6640000000000001,,-3.535,5.912,5.531,-1.425,14.686,12.211,9.559000000000001
151,96,Cm,7.5019318,0.0435841,247.070352678,11.6140548,12.2230096,5.3536281,-0.576287,-7.150638,-6.5051245,5.1551245,6.75,-6.139,14.3434954,10.5180254,11.3734866
150,97,Bk,7.498940800000001,-0.6198711,247.070305889,12.4668908,10.988837799999999,5.8895999,-3.0888718,-6.793,-6.672024500000001,6.5487086,4.4163616,-10.446,15.195804200000001,11.9017413,11.2567883
149,98,Cf,7.4932638,-2.4690005999999998,247.070971348,13.4183952,9.4730738,6.5025408,-5.563,-3.7964905,-9.780727500000001,6.0521534,5.1464905,,15.0064235,10.2596222,13.3039594
148,99,Es,7.4801005,-3.094,247.073621929,13.879,7.8133251,7.4638478,-7.357,-2.6774899000000003,-9.684111699999999,7.3117269,2.8008056999999997,,15.904048600000001,11.964352000000002,13.510969800000002
147,100,Fm,7.464,-4.263,247.076944,14.662,6.291,8.2576677,,0.293,-12.514000000000001,6.59,3.435,,16.068,10.511000000000001,15.841000000000001
146,101,Md,7.444,,247.08152,15.532,4.957,8.7643999,,0.8280000000000001,,8.251,1.544,,16.455000000000002,11.836,15.557
153,95,Am,7.487,3.17,248.075752,10.574,,4.898,2.432,,-3.0420000000000003,4.662,5.936,0.264,15.879,12.249,10.359
152,96,Cm,7.4967291,-0.7383049,248.072349086,11.366800300000001,12.579966800000001,5.161810900000001,0.15479669999999998,-9.106,-6.1680917,6.2116758,7.049,-4.5050452,13.11,10.3563859,9.860977
151,97,Bk,7.4905975,0.8931015,248.073141689,11.9784954,11.441,5.827001500000001,-2.168,-6.311,-6.049657900000001,5.4297868,4.6910239,-8.817,16.2249477,11.9905836,11.8770378
150,98,Cf,7.491044,-3.061,248.072182905,12.9949128,9.956903,6.3611999,-4.659841900000001,-5.5841254,-9.4117601,6.9427595,5.5405413,-13.451,13.9818462,10.288230200000001,11.8798291
149,99,Es,7.476,-1.599,248.075469,13.662,8.246,7.16,-6.649,-2.479,-9.445,6.351,3.099,,16.92,11.778,14.132
148,100,Fm,7.4659451,-5.05,248.077185451,14.4360299,6.7703769000000005,7.994780800000001,-8.791,-1.5005706,-12.109,7.846,3.9695712,,14.7897981,10.447000000000001,14.1590436
147,101,Md,7.442,-3.741,248.082607,15.31,5.449,8.4972929,,1.08,,7.059,2.0140000000000002,,17.467,11.620000000000001,16.279
146,102,No,7.424,,248.086623,,4.081,9.3,,1.727,,,2.536,,15.284,10.228,16.143
154,95,Am,7.479,2.353,249.07848,10.192,,4.829,3.257,,-2.36,5.53,,1.929,14.604000000000001,12.573,
153,96,Cm,7.485551000000001,0.904363,249.075953992,10.9250457,13.037,5.1476071,1.027963,,-5.4516748,4.71337,7.101,-2.7684469,14.308,10.621,11.0023256
152,97,Bk,7.486041,0.1236,249.074983118,11.7858246,11.885,5.5209999,-1.328,-8.005,-5.462936300000001,6.3560378,4.835386000000001,-7.334619,15.024034400000001,12.0934761,10.499
151,98,Cf,7.483395400000001,-1.452,249.074850428,12.5292958,10.3883147,6.293292800000001,-3.7964099,-4.958986,-8.648,5.5865363,5.6972908,-12.064,14.9440185,10.619876099999999,12.7522231
150,99,Es,7.474,-2.344,249.076409,13.546000000000001,8.893,6.936,-6.006,-4.245,-8.794,7.196,3.352,,15.776,11.949,12.854000000000001