N,Z,element,be_per_a,beta_decay_energy,atomic_mass,s2n,s2p,qa,q2b,qep,qbn,s1n,s1p,q4b,qda,qpa,qna
35,20,Ca,8.125926,12.191732900000002,54.979978,5.4053036,40.019,-14.586,23.182093700000003,-38.5,7.7162405,1.5611058,20.789,36.4599488,4.3561543,3.3513088,-11.624
34,21,Sc,8.3333694,10.990360800000001,54.966889637,8.2151894,33.1243278,-10.751567,18.2830281,-32.981,6.8303864999999995,4.4754924,12.9704917,26.870434200000002,9.2564066,8.2882189,-8.0580771
33,22,Ti,8.5189696,7.292667300000001,54.955091,11.093671700000002,27.0227033,-7.925074899999999,13.277855,-23.9608525,-0.0055195,4.1599743,14.6835062,15.648953,7.6478928999999995,3.555147,-1.9197949
32,23,V,8.6373391,5.985187700000001,54.947262,13.416097100000002,24.9335236,-8.299699,8.587406000000001,-21.9761735,-0.261075,7.298186800000001,10.670294700000001,4.9048602,8.4671041,5.2166169,-2.9551733
31,24,Cr,8.7319362,2.6022183,54.940836637,15.9653422,22.806832800000002,-7.8022745,2.3710979,-16.6554824,-7.6233952,6.2462627,12.501027500000001,-9.774362499999999,7.4521583,1.1967632000000001,0.013776199999999999
30,25,Mn,8.7650247,-0.2311204,54.93804304,19.164828399999998,20.4388092,-7.9343526,-3.6825457999999998,-15.103245800000002,-9.5292447,10.2256135,8.066134,-26.0771393,8.2858826,2.5710211,-0.6231081
29,26,Fe,8.7465981,-3.4514254,54.938291158,22.6765745,16.771746200000003,-8.455623,-12.145460400000001,-7.835013600000001,-17.5426721,9.2981243,9.2121461,-43.212,7.9197351000000005,-1.9059799000000002,3.5844885
28,27,Co,8.6696204,-8.694035,54.941996416,27.5132564,13.9175886,-8.211686799999999,-22.3945935,-5.7607207,-22.823002499999998,14.0912467,5.0643519,,7.628294100000001,-0.8338457,2.3277925
27,28,Ni,8.497322500000001,-13.7005585,54.951329846,31.8477699,8.966420099999999,-7.5716918,-31.066,3.6296831000000003,-32.167,14.128967500000002,4.6148647,,8.034221800000001,-6.1279274,8.6425363
26,29,Cu,8.233996999999999,-17.366,54.966038,34.638,3.5539689,-6.7181722,,9.0856938,-34.005,18.467,-0.353938,,8.7062317,-4.2114918,8.3549781
25,30,Zn,7.904,,54.984681,,-0.783,-5.0440000000000005,,17.72,,16.639,0.319,,9.581,-7.526,13.937000000000001
37,19,K,7.663,21.491,56.008567,3.012,,-16.804000000000002,33.496,,18.559,0.562,,54.164,6.131,6.054,
36,20,Ca,8.0331654,12.005458,55.985496,4.4924394,40.649,-14.556000000000001,25.912604899999998,,9.2603993,2.9313336,21.27,41.774737099999996,2.351,3.6493869,-14.655000000000001
35,21,Sc,8.2335781,13.907147000000002,55.972607611,7.220551,34.944,-10.8031358,20.6675521,-33.275,8.245302200000001,2.7450587,14.154444600000001,31.395817500000003,10.3555458,8.7359142,-7.573724100000001
34,22,Ti,8.467949500000001,6.7604051,55.957677675,9.8218191,28.840350299999997,-7.5816397,15.8621321,-28.0615915,1.6308225,5.6618448,15.8698586,21.1841678,5.7257451,4.2106143000000005,-4.3888858
33,23,V,8.5747006,9.101727,55.950420082,12.427769399999999,26.323409100000003,-8.084756,10.7282654,-22.6302638,0.8556051,5.1295826,11.6399029,9.857117200000001,10.271218900000001,5.5620877,-1.7674438000000001
32,24,Cr,8.7232609,1.6265384,55.940648977,14.4923846,24.1192573,-8.2323457,5.322035700000001,-20.7416299,-5.6439036,8.2461219,13.448962600000002,-1.3774787,5.3239467000000005,1.4306026,-2.7572923
31,25,Mn,8.738335800000002,3.6954973,55.938902816,17.4960555,21.5913408,-7.893550100000001,-0.8711482,-15.075501000000001,-7.5015624,7.270442,9.0903133,-18.281933300000002,10.7345202,3.2400068,0.5864112
30,26,Fe,8.7903563,-4.5666455,55.934935537,20.495184000000002,18.2497262,-7.6125711,-6.6995143,-12.785810600000001,-14.648485,11.197059600000001,10.1835922,-35.217,5.661890400000001,-1.0527583,0.3268566
29,27,Co,8.694838599999999,-2.1328689,55.939838032,24.173086299999998,15.0602133,-7.7540471,-17.410785100000002,-5.6169468,-18.775874599999998,10.0818396,5.848067200000001,-52.201,10.924904699999999,-0.2289792,4.2962342
28,28,Ni,8.6427811,-15.277916300000001,55.942127761,30.7719731,12.2309756,-8.0004694,-28.518,-3.7151983,-30.343564200000003,16.643005700000003,7.166623700000001,,4.8132258000000006,-6.384217700000001,2.6862366000000004
27,29,Cu,8.355990700000001,-13.24,55.958529278,33.532000000000004,5.1976071,-6.7106698,-34.79,8.1112926,-32.431,15.0656479,0.5827424,,11.3593863,-4.13485,9.6760456
26,30,Zn,8.106,-21.55,55.972743,35.83,0.6890000000000001,-5.255,,12.657,,19.191,1.043,,6.561,-7.386,9.887
25,31,Ga,7.707,,55.995878,,-2.822,-4.385,,20.507,,,-3.141,,12.573,,14.946
37,20,Ca,7.912,14.82,56.992958,4.0520000000000005,,-15.775,27.842000000000002,,10.885,1.121,21.829,45.965,3.681,3.455,-13.473
36,21,Sc,8.1581666,13.022195700000001,56.977047999999996,6.680180900000001,36.428,-11.508846400000001,23.0554105,-36.649,9.9720247,3.9351223,15.158233200000002,36.106626600000006,7.9815293,8.6449898,-10.583
35,22,Ti,8.3729008,10.0332148,56.963068098,8.7120158,30.3294155,-7.4390568,18.1231363,-28.1804289,3.7102341,3.0501709999999997,16.174971,25.7801684,7.1510665,4.900140400000001,-3.5948589
34,23,V,8.5351967,8.0899214,56.952297,11.4525633,28.1708975,-8.090424500000001,13.051216,-26.2081858,2.7787463,6.3229807000000005,12.3010388,14.9105947,8.1082125,6.1728044,-4.3507275
33,24,Cr,8.663399799999999,4.9612946,56.943612112,13.5572971,25.2704581,-8.068467400000001,7.6570321,-20.3909603,-3.6846368000000003,5.3111752,13.6305551,3.5589762,7.3109584000000005,2.2373377999999997,-1.13477
32,25,Mn,8.736714599999999,2.6957375000000003,56.938285944,15.9163733,22.9390854,-8.0595201,1.8593786,-18.5918497,-4.950434100000001,8.6459314,9.4901227,-10.177265,8.334851500000001,4.3131551,-1.9416098
31,26,Fe,8.7702829,-0.8363589,56.93539195,18.843231199999998,19.6496351,-7.319315,-4.0980559,-12.185860199999999,-12.212817,7.6461716,10.5593218,-27.632,8.2413324,0.2402851,2.3997646
30,27,Co,8.741884500000001,-3.2616970000000003,56.936289819,21.4582977,16.2110579,-7.080224,-12.0366437,-9.722963,-13.5093271,11.3764582,6.0274657,-43.936,8.8465708,1.7730127,1.8589909
29,28,Ni,8.6709364,-8.7749466,56.939791394,26.8906357,13.1804813,-7.5613934,-23.534,-2.7657687,-25.525546300000002,10.24763,7.3324141,,8.6568424,-3.2098380000000004,5.8170568000000005
28,29,Cu,8.503264600000001,-14.759,56.949211686,31.8162476,7.8569601,-7.0745541,-31.899,1.4425325,-29.991,16.7505997,0.6903364000000001,,8.7377541,-3.1666472,6.3474556
27,30,Zn,8.231,-17.14,56.965056,34.423,1.792,-5.344,,14.069,-36.782000000000004,15.232000000000001,1.209,,9.796,-6.446,12.375
26,31,Ga,7.916,,56.983457,,-1.6480000000000001,-4.695,,15.931000000000001,,19.641000000000002,-2.691,,9.571,-4.844,11.477
38,20,Ca,7.828,13.949,57.998357,4.163,,-16.516000000000002,29.387,,11.778,3.0420000000000003,22.949,50.461,1.2,2.863,
37,21,Sc,8.0549436,15.4380995,57.983382,6.1063567,38.038000000000004,-12.754,24.9510146,-36.898,10.850961300000002,2.1712344,16.209,40.347999300000005,8.741628500000001,8.0348611,-10.304
36,22,Ti,8.307629,9.5129152,57.966808519,7.6373092,31.9852201,-8.1819971,21.0741391,-31.647000000000002,5.4460767,4.5871382,16.8269869,31.2376025,5.308987,4.7884946,-6.6208913
35,23,V,8.458156,11.561224000000001,57.956595985,10.3898192,29.4926773,-8.417566,15.3969847,-26.339902,4.023083,4.0668385,13.3177063,19.416708800000002,9.7032188,6.2659402,-3.9420736
34,24,Cr,8.643998700000001,3.8357607,57.944184501,12.849316199999999,27.1467543,-8.6729111,10.163463400000001,-24.8789303,-2.5768464,7.5381409999999995,14.8457155,8.2370637,4.9024,1.9973836,-4.5129367
33,25,Mn,8.6966438,6.3277027,57.940066643,15.058538500000001,24.2221099,-8.354216899999999,4.0197241,-18.681476200000002,-3.7168696,6.412607100000001,10.591554700000001,-4.159717400000001,10.1683663,4.1468106,-1.0560300999999999
32,26,Fe,8.7922534,-2.3079785000000004,57.933273575,17.6907439,21.4480855,-7.6448077,-1.9263997,-16.9192574,-10.880931200000001,10.0445723,11.957962799999999,-19.8563997,5.467202,0.4213263,-1.3985450000000001
31,27,Co,8.738971900000001,0.3815789,57.935751292,19.949410800000003,17.5135686,-6.7139617,-8.1794415,-9.6499842,-11.8346497,8.5729526,6.9542468,-36.308,11.470677799999999,2.4981844,3.5116518
30,28,Ni,8.732062099999998,-8.5610204,57.93534165,22.4638585,14.1996502,-6.3991718,-17.93,-7.335825600000001,-20.9911751,12.2162285,8.1721845,-52.649,6.5224535,-1.3348198,2.8989526000000003
29,29,Cu,8.5709696,-9.368979600000001,57.944532283,29.1807544,10.2052753,-6.0826991,-28.128,0.3888359,-27.189,12.4301547,2.8728611,,12.950605,-1.4678345,8.0085475
28,30,Zn,8.395946700000001,-18.759,57.954590296,33.052,2.9691644999999998,-5.4454753,-34.719,6.4961185,-34.96,17.82,2.2788281,,7.0416683,-5.7994133,8.683492200000002
27,31,Ga,8.059000000000001,-15.96,57.974728999999996,35.843,-0.512,-4.7250000000000005,,16.48,,16.201,-1.721,,12.561,-4.406,13.742
26,32,Ge,7.7700000000000005,,57.991863,,-3.232,-4.303,,17.682,,,-0.541,,6.971,,12.336
38,21,Sc,7.9764073,15.05,58.988374,5.5925339,39.537,-13.725,26.7810666,-40.049,12.0167999,3.4212995,16.588,44.695778,6.441,7.5448952,-13.163
37,22,Ti,8.218,11.731,58.972217,7.62,33.898,-9.654,22.236,-31.638,6.48,3.033,17.689,34.785000000000004,6.211,4.5,-6.723
36,23,V,8.403803400000001,10.5053137,58.959623343,9.318190000000001,30.808906500000003,-9.1934251,17.9147114,-29.4200191,6.309872500000001,5.2513515,13.9819196,24.619220900000002,7.502038300000001,6.6764336,-6.4483664
35,24,Cr,8.568599500000001,7.4093977,58.948345426,11.7335823,28.2920246,-8.708378000000002,12.5490267,-24.4872334,-0.3596806,4.195441300000001,14.9743182,13.040902200000001,7.0299394,2.931525,-3.0465332
34,25,Mn,8.6809224,5.139629,58.940391111,14.181685400000001,25.6682074,-8.8251083,6.7045095,-22.3837159,-1.4413756000000002,7.7690782,10.822491900000001,0.8331258,7.7104632,4.6238543,-3.6955257
33,26,Fe,8.754774600000001,1.5648804,58.934873492,16.6255769,22.717915,-7.9795497,0.4918754,-15.962121,-8.8889832,6.5810046,12.1263603,-13.449279200000001,7.5321287,1.1107636,0.26657220000000004
32,27,Co,8.7680379,-1.0730050000000002,58.933193523999996,19.026816200000003,19.321500800000003,-6.9422118,-5.871383600000001,-13.6912407,-10.0722847,10.4538636,7.363538,-28.47,8.662985800000001,3.2413805000000004,0.3282302
31,28,Ni,8.736591200000001,-4.7983786,58.934345442,21.215508300000003,15.5527584,-6.1003272,-13.9411546,-6.2905331,-17.5603001,8.999279699999999,8.5985116,-44.787,8.899631900000001,-0.25226,5.0967325
30,29,Cu,8.642002699999999,-9.142776,58.939496713,25.1920762,11.590738600000002,-4.753374,-22.598,-3.8001329999999998,-22.1309011,12.761921500000001,3.4185540999999997,,10.4363135,2.4132496999999997,5.3284656
29,30,Zn,8.4737802,-13.456,58.949311886,30.808,5.7096597000000004,-4.304633,-30.846,5.7242218000000005,-31.747,12.9881251,2.8367985,,10.8041429,-3.7218906,12.3383727
28,31,Ga,8.232,-17.39,58.963757,34.493,1.029,-4.55,,10.619,-34.252,18.292,-1.25,,9.501,-3.5060000000000002,10.516
27,32,Ge,7.924,,58.982426,,-1.602,-4.525,,18.64,,16.862000000000002,0.11900000000000001,,9.75,-7.666,14.666
39,21,Sc,7.873,17.549,59.995115,5.213,41.058,-14.955,28.537,-40.589,13.258000000000001,1.792,17.649,48.418,7.691,6.873,-13.034
38,22,Ti,8.1527858,10.987704,59.976275,7.3246652999999995,35.147,-11.014223,24.8088026,-35.198,7.4396014,4.291,18.5591182,39.3134766,4.0906784,4.1440103,-9.894
37,23,V,8.3228751,13.8210986,59.964479215,8.7994541,32.1857747,-9.996469,19.8805443,-29.546822199999998,6.9572111,3.5481026000000004,14.497,28.5630359,8.541073899999999,6.1785019000000005,-6.061346800000001
36,24,Cr,8.5401876,6.0594457,59.949641656,11.0593288,30.5687739,-9.910420700000001,14.5046739,-28.318,0.5455102000000001,6.8638875,16.5868543,17.564743,4.2328904000000005,2.3906182,-6.860249700000001
35,25,Mn,8.6281392,8.4452283,59.943136574,13.2830137,27.115304400000003,-9.2094612,8.682491599999999,-22.646299900000002,-0.3743064,5.5139355,12.1409862,5.3773163,9.7346687,4.4210939,-2.8864805000000002
34,26,Fe,8.7558539,0.23726329999999998,59.934070249,15.4005394,23.9993087,-8.5529625,3.0600691,-20.586214499999997,-7.2546543,8.8195347,13.176816800000001,-7.2387041,5.1252011,0.9371602,-3.2417874
33,27,Co,8.746769200000001,2.8228058000000003,59.933815536,17.945781200000003,20.4008113,-7.1636874,-3.3051753,-13.4140801,-8.564922600000001,7.4919176,8.274451,-22.06,11.2156405,3.3956344,1.4822439
32,28,Ni,8.780776900000001,-6.127981,59.930785129,20.3870081,16.895914400000002,-6.2909959,-10.2987732,-11.0972568,-16.186107,11.3877284,9.532376399999999,-36.943,6.0848562,-0.2635302,1.3551756000000001
31,29,Cu,8.6656047,-4.1707922,59.937363787,22.8200474,13.0759119,-4.7296603,-18.755,-3.4043953,-19.2009019,10.058126,4.4774003,-52.705,12.5944161,2.6027538,6.646797800000001
30,30,Zn,8.583052400000001,-14.584,59.941841317,28.0182349,8.5235409,-2.6917371,-26.644000000000002,-0.3066082,-28.486,15.0301098,5.1049868,,8.2041879,-2.0014007,7.555893
29,31,Ga,8.327,-12.06,59.957498,32.193,2.5,-3.386,-33.95,9.479000000000001,-31.292,13.902000000000001,-0.336,,13.419,-2.176,13.365
28,32,Ge,8.113,-21.89,59.970445,36.093,-0.191,-4.565,,12.396,,19.232,1.059,,6.72,-7.257000000000001,10.666
27,33,As,7.735,,59.993945,,-3.322,-4.225,,20.831,,,-3.4410000000000003,,12.65,,15.416
40,21,Sc,7.7940000000000005,16.87,61.000537,4.813,42.827,-16.055,30.677,,14.529,3.021,17.789,52.242000000000004,5.401,6.8950000000000005,-15.784
39,22,Ti,8.058,13.807,60.982426,6.633,36.758,-12.235,26.126,-34.659,8.646,2.342,19.109,42.550000000000004,5.17,3.974,-9.193
38,23,V,8.2710417,12.3193807,60.967603529,8.7091404,33.925513,-11.2223845,21.5650084,-32.916000000000004,8.660060900000001,5.1610378,15.3663948,32.7210573,6.413,5.6046023,-9.051150100000001
37,24,Cr,8.4601734,9.2456277,60.95437813,10.523207300000001,31.195,-10.5195695,16.4240007,-27.685775500000002,2.4001257999999996,3.6593198000000005,16.6980714,21.725526900000002,5.8249221,2.7981368000000004,-5.9324313
36,25,Mn,8.5989157,7.178373,60.944452541,12.3594373,28.7094548,-9.731982400000001,11.1560489,-25.943699100000003,1.5997264,6.8455018,12.1226005,10.2419329,7.0846081000000005,5.1137331,-5.6651439
35,26,Fe,8.7037686,3.9776759000000004,60.936746241,14.398181300000001,25.382514,-8.8204339,5.301526300000001,-19.3009735,-5.3413833,5.5786466,13.2415278,-2.5715966,7.3156328,1.7711208,-1.2822928999999998
34,27,Co,8.756151000000001,1.3238504,60.932476031,16.810976800000002,21.9507922,-7.8368152,-0.914116,-17.2192038,-6.4962534,9.3190592,8.7739755,-15.7635163,8.477585999999999,4.1211476000000005,-1.4242081000000002
33,28,Ni,8.7650281,-2.2379663,60.931054819,19.2078321,18.135013599999997,-6.4649281,-7.8731229,-10.0978258,-13.9480848,7.8201037,9.8605625,-30.432000000000002,8.718616,0.4893187,3.5796442
32,29,Cu,8.715514800000001,-5.6351565,60.933457375,21.7682444,14.332166800000001,-5.0633206,-14.8494003,-7.6225962,-15.8809106,11.710118399999999,4.7997904,-44.784,9.8835774,3.1088639,3.5096320000000003
31,30,Zn,8.610309800000001,-9.2142438,60.939506964,25.2758638,9.7700152,-2.6898611000000003,-22.559,0.8353661,-24.830000000000002,10.245754100000001,5.292614899999999,,10.7203553,0.183,9.5263674
30,31,Ga,8.4464313,-13.345,60.949398861,29.517,5.3541501,-2.250564,-29.935000000000002,3.9216289000000004,-27.676000000000002,15.616,0.2491633,,10.7918231,0.0282642,10.1795908
29,32,Ge,8.215,-16.59,60.963725,33.563,1.1520000000000001,-3.665,,13.096,-36.221000000000004,14.331,1.489,,10.681000000000001,-5.386,14.155000000000001
28,33,As,7.930000000000001,,60.981535,,-1.982,-4.215,,15.101,,19.631,-3.041,,9.881,-4.756,11.986
40,22,Ti,7.99,13.013,61.986903,6.243,37.778,-13.094,28.653000000000002,-38.499,9.906,3.9010000000000002,19.989,46.678000000000004,3.061,3.494,-12.363
39,23,V,8.1877565,15.639447800000001,61.972932556,8.2683981,35.241,-12.158510399999999,23.310801,-33.002,9.2120204,3.1073603,16.132,36.211235699999996,7.5973410999999995,5.531,-8.737210900000001
38,24,Cr,8.4273871,7.6713531999999995,61.95614292,10.0867473,33.3308559,-12.3598588,18.0254452,-31.772000000000002,2.8182002,6.4274274,17.9644611,25.893828300000003,2.9455972999999998,1.6220609,-9.327
37,25,Mn,8.538500200000001,10.354092000000001,61.947907384,11.6986548,30.014505099999997,-10.5182968,12.9004347,-25.6358143,2.32522,4.853153000000001,13.3164337,14.2635786,9.0953427,4.4560214,-5.266945300000001
36,26,Fe,8.6928831,2.5463427000000003,61.936791809,13.607518500000001,26.547498500000003,-9.3111648,7.8683831,-23.6705256,-4.051196,8.0288719,14.424897999999999,2.2900318000000004,4.8006964,1.5113271,-5.1157236
35,27,Co,8.7213347,5.3220404,61.934058198,15.916597900000001,23.0343955,-8.0217469,1.3631439,-16.9712407,-5.2736884,6.597538800000001,9.7928677,-9.4373775,10.6995819,4.1046134,-0.2526686
34,28,Ni,8.794555500000001,-3.9588965,61.928344753,18.4158325,19.9112076,-7.0160846,-5.5783513000000005,-15.114908100000001,-12.833695100000002,10.595728800000002,11.137232200000001,-24.607,5.6148048,0.3474535,-0.43507999999999997
33,29,Cu,8.7180839,-1.6194548,61.932594803,20.5849171,15.7150478,-5.365166599999999,-10.8005214,-7.1783356000000005,-14.5099552,8.8747986,5.8544853,-38.367,12.396507100000001,3.233345,5.088697
32,30,Zn,8.6793451,-9.1810666,61.934333359,23.1362545,11.272787300000001,-3.364133,-19.028,-4.2350305,-22.104744200000003,12.8905004,6.4729969,,7.8879808,0.05442110000000001,5.6351467
31,31,Ga,8.5186449,-9.847,61.944189639,28.539,8.2197017,-2.7440868000000003,-27.567,2.7080697000000002,-26.268,12.923677600000001,2.9270868,,12.8982553,0.0927117,10.0178347
30,32,Ge,8.347,-17.72,61.954761,30.752,2.543,-2.266,,6.92,-33.011,16.421,2.294,,8.161,-3.516,10.722
29,33,As,8.049,,61.973784,34.922000000000004,-0.592,-3.305,,15.426,,15.291,-2.081,,13.821,-3.186,14.986
41,22,Ti,7.891,15.88,62.993709,5.633,39.448,-14.095,30.318,,11.282,1.732,20.459,49.776,4.351,3.5540000000000003,-11.214
40,23,V,8.1307809,14.438158600000001,62.976661,7.7056557,36.818,-13.335506299999999,25.146919699999998,-36.339,11.041152400000001,4.5982954000000005,16.829,40.111411999999994,5.341,5.2236119,-11.543000000000001
39,24,Cr,8.3475398,10.7087611,62.961161,9.8244336,34.386,-12.724,19.4573296,-31.267,4.2743471,3.3970061,18.254107,29.334592,4.7096289,1.7731573,-8.4321997
38,25,Mn,8.505102,8.7485685,62.949664672,11.2875671,31.2878814,-11.7013594,14.9644923,-28.9628681,3.9196779000000004,6.4344141,13.3234203,18.692807600000002,6.3202484000000005,4.885494800000001,-8.1532568
37,26,Fe,8.6315499,6.2159238,62.940272698,12.857762500000002,27.7170692,-9.9446142,9.8772624,-22.0719888,-2.2825479,4.8288906,14.4006356,6.5777999000000005,6.8173076,2.1963719999999998,-3.0807267
36,27,Co,8.717797200000001,3.6613385,62.93359963,15.0960105,24.6873654,-8.7511403,3.7283153,-20.6165594,-3.1764313000000004,8.4984717,10.2624674,-5.3044533000000005,7.7797568,4.4256765,-3.2372048
35,28,Ni,8.763495500000001,0.0669768,62.929669021,17.4334986,21.1703309,-7.2728498,-3.2994624,-13.923806,-10.7966664,6.8377698,11.377463200000001,-18.5916705,8.0960942,1.0016012,1.5466849
34,29,Cu,8.7521404,-3.3664392,62.929597119,19.7384417,17.259631700000003,-5.7749461,-9.032768599999999,-11.44444,-12.4830979,10.863643099999999,6.1223996,-32.08,9.3529678,3.7574302,1.7169715
33,30,Zn,8.686286599999999,-5.6663293999999995,62.93321114,22.007159100000003,12.5693422,-3.4815119,-15.2922081,-2.7559604,-18.2977253,9.1166587,6.7148569,-45.364000000000004,10.4814406,0.9958884000000001,7.906216400000001
32,31,Ga,8.583926700000001,-9.6258787,62.939294194,25.5550735,9.1409792,-2.6135612000000004,-23.047,-1.0485274999999998,-22.479,12.6313959,2.6679823000000003,,10.512613400000001,2.4914256,7.4445648
31,32,Ge,8.418716700000001,-13.421000000000001,62.949628,29.274,5.150257,-2.1304585,-30.071,6.9578964,-30.572,12.853,2.2231702,,10.9242484,-2.467,12.8996513
30,33,As,8.193,-16.65,62.964036,32.443,0.9440000000000001,-2.165,,11.198,,17.152,-1.351,,11.001,-1.106,11.737
42,22,Ti,7.8260000000000005,14.84,63.998411,5.423,,-14.905000000000001,32.160000000000004,,12.189,3.6910000000000003,21.839000000000002,53.489000000000004,1.92,2.884,-14.844000000000001
41,23,V,8.045,17.32,63.98248,7.2490000000000006,38.208,-14.194,26.669,-36.679,11.787,2.6510000000000002,17.749,43.473,6.591,4.914,-11.174