N,Z,element,be_per_a,beta_decay_energy,atomic_mass,s2n,s2p,qa,q2b,qep,qbn,s1n,s1p,q4b,qda,qpa,qna
111,85,At,7.7520001,-5.8883439,195.995799034,19.3393213,2.4680971,7.1964462000000005,,6.8234207,-17.034778,8.5141938,0.0854914,,17.8022491,9.2761824,17.617790799999998
110,86,Rn,7.7179660000000005,,196.002120431,19.892090800000002,1.5981561,7.6167366,,5.8028525,,11.1464341,1.8435029,,13.4024658,6.906547400000001,15.9468733
123,74,W,7.853,5.48,196.984036,10.273,,,10.209,,-0.582,4.202,,15.549,,7.1240000000000006,
122,75,Re,7.877,4.729,196.978153,10.933,,-1.966,7.914000000000001,,-0.145,6.062,8.9,10.789,11.1,8.924,2.426
121,76,Os,7.897,3.185,196.973076,11.711,18.918,-1.315,5.34,-13.629,-3.715,4.874,10.009,5.461,11.191,7.045,4.977
120,77,Ir,7.9090003,2.1556519,196.969657217,12.714440699999999,17.282,-0.4573975,2.8756287000000005,-13.194,-3.6909028,6.8999192,7.2759711,0.0900989,11.9582805,9.0351088,4.642
119,78,Pt,7.9159714,0.7199769,196.96734303,13.7685324,15.486120500000002,0.5497104,0.1204562,-9.4316229,-7.352375,5.8465546,8.273224,-5.6743896000000005,11.9833506,6.9760569,7.6618039
118,79,Au,7.9156548,-0.5995206,196.966570103,14.715326800000001,14.025375400000001,0.9716373,-2.7855298,-8.9932009,-7.3851256,8.0723519,5.7841845,-11.4525559,12.3649339,8.4844052,7.0384269999999995
117,80,Hg,7.9086402,-2.1860092,196.967213715,15.669525100000001,12.3242946,1.5145302999999999,-5.7948458,-5.184663899999999,-11.1149505,6.785604999999999,6.6904843000000005,-17.1471524,12.737637000000001,6.535774000000001,9.8662728
116,81,Tl,7.8935725,-3.6088367,196.969560492,16.3415659,10.365103,2.6256917,-8.6670261,-4.5044751,-11.077305200000001,8.9289414,3.8172487999999998,-21.998966799999998,13.369927200000001,8.693785400000001,9.5041302
115,82,Pb,7.8712822,-5.058189400000001,196.973434737,17.1499816,8.309985300000001,3.8918643000000004,-11.3523066,-0.20841220000000002,-14.8076706,7.4684686000000005,4.5377577,-26.255753300000002,14.120714,7.0561678,13.0849691
114,83,Bi,7.8416348,-6.2941172,196.978864927,17.804265100000002,6.1098458,5.3651071,-13.331940699999999,0.5204316999999999,-14.2897823,9.7494812,1.6279321,-29.9411634,14.761651,9.3847258,12.8967043
113,84,Po,7.8057136,-7.037823500000001,196.985621939,18.4190599,4.232981,6.4112605,-14.9034467,4.6661851,-17.5512215,7.9956651,2.6730169999999998,,15.3432953,7.4939968,16.46119
112,85,At,7.7660174,-7.8656231,196.993177353,19.0275919,2.9076304,7.104392799999999,-16.6092227,4.364806499999999,-16.4017419,10.513397999999999,0.1754946,,15.472206700000001,9.5134174,15.3141673
111,86,Rn,7.722119,-8.7435996,197.001621446,19.682552899999997,1.9509193,7.410754600000001,,7.6901285,,8.5361188,1.8654279,,15.691474399999999,7.0909132,18.1613875
110,87,Fr,7.673764,,197.011008086,,0.8536751,7.8963752000000005,,6.8781717,,,-0.9898278,,15.914489900000001,9.3933994,16.6168598
123,75,Re,7.861,6.61,197.98176,10.774000000000001,,-2.285,8.72,,0.018000000000000002,4.711,9.409,12.59,12.46,8.613,
122,76,Os,7.890000000000001,2.11,197.974664,11.466000000000001,19.438,-1.615,6.304,-16.019000000000002,-3.408,6.5920000000000005,10.539,7.354,9.47,6.824,2.786
121,77,Ir,7.897,4.194,197.972399,12.417,17.929000000000002,-0.875,3.871,-12.649000000000001,-3.362,5.517,7.92,1.819,13.278,8.665000000000001,5.496
120,78,Pt,7.9141512,-0.3232251,197.967896718,13.402115900000002,16.2048372,0.10624259999999999,1.0502974999999999,-12.113,-6.8355844,7.555561300000001,8.9288662,-3.8365752000000004,10.2423108,6.6523556,5.2539806
119,79,Au,7.9085675,1.3735226,197.968243714,14.5847113,14.7232133,0.5260676999999999,-2.0520399000000005,-8.605641100000001,-7.11188,6.5123594,6.4499892,-10.206941800000001,13.7745523,8.0771408,7.7579276
118,80,Hg,7.9115532,-3.4255625000000003,197.966769177,15.2710076,12.8877195,1.3808702000000002,-4.8868728,-7.8235118,-10.6714118,8.4854026,7.103535,-15.4810371,10.895209300000001,6.4768007,7.4859652
117,81,Tl,7.890301099999999,-1.4613103,197.970446669,16.1747906,10.9679774,2.2582809000000004,-8.1549019,-3.6779725,-10.8546859,7.2458493,4.2774931,-20.8200062,15.007998100000002,8.3486442,10.6847102
116,82,Pb,7.8789695,-6.6935915999999995,197.97201545,16.8618442,8.8194408,3.6915934000000004,-10.594164300000001,-2.8161828,-14.4515651,9.393375599999999,5.002192,-24.837123000000002,12.1399628,6.9519044999999995,10.5923015
115,83,Bi,7.8412123000000005,-3.9005727,197.979201316,17.507454600000003,6.4551947,5.1387308,-12.665104300000001,1.6913996,-14.0520906,7.7579735,1.9174369999999998,-28.9515491,16.685190600000002,9.228243700000002,14.4278432
114,84,Po,7.8175611,-8.7645316,197.983388753,18.1471831,4.7029859,6.309672,-14.242958699999999,1.9831357,-17.189341499999998,10.151518,3.0750538,,13.2465612,7.4163436,13.9111634
113,85,At,7.7693446,-5.4784271,197.992797864,18.938207900000002,3.2776563000000003,6.8893574,-16.286444799999998,5.6894778,-16.290433,8.4248099,0.6046394,,17.470791600000002,9.2719631,16.9632221
112,86,Rn,7.737724500000001,-10.8080177,197.998679197,19.3481247,2.3395304,7.3493816,,4.8737877,-19.555605500000002,10.8120059,2.1640358,,13.3936624,7.104034700000001,15.5327372
111,87,Fr,7.6791873,,198.010282081,,1.0870691,7.8692720000000005,,8.6439819,,8.7475878,-0.7783588,,18.313336200000002,9.391468300000001,18.694399399999998
124,75,Re,7.8500000000000005,5.541,198.984187,10.522,,,9.669,,0.799,5.811,,14.364,10.851,8.874,
123,76,Os,7.8740000000000006,4.128,198.978239,11.333,19.978,-1.955,7.118,,-2.6310000000000002,4.741,10.569,9.276,10.791,6.953,4.116
122,77,Ir,7.8912066,2.9901656,198.973807097,12.2770475,18.626,-1.2630000000000001,4.6952181,-14.697000000000001,-2.5658344000000004,6.76,8.087,3.6608628,11.392,8.7426438,3.607
121,78,Pt,7.9023011,1.7050525,198.970597022,13.1115612,16.887,-0.30201940000000005,2.1573667000000003,-11.077,-5.879225000000001,5.556,8.968,-2.1569652,11.58623,6.9108770999999996,6.5348252
120,79,Au,7.9069379,0.45231420000000006,198.968766573,14.0966369,15.407571599999999,0.1736501,-1.0343554,-10.673,-6.2107549,7.584277500000001,6.4787055,-8.2961359,12.0368294,8.414841000000001,5.988171599999999
119,80,Hg,7.9052794,-1.4866695,198.968280994,15.1484717,13.7042339,0.8228961,-4.3143319,-6.9310196,-10.088631600000001,6.6630690999999995,7.2542447,-14.3072375,12.3044921,6.4567064,8.744873799999999
118,81,Tl,7.893877300000001,-2.8276624000000004,198.969877,15.8478113,11.4975875,2.0827481,-7.2617805,-5.7675752000000005,-10.0632724,8.601962100000001,4.3940526,-19.2360196,13.191641,8.6306022,8.725722900000001
117,82,Pb,7.875736600000001,-4.4341181,198.97291262,16.6289856,9.2694458,3.3566915,-9.9929056,-1.5663902,-13.9292016,7.235609999999999,4.9919527,-23.671888,13.833294200000001,7.1289191,12.240611600000001
116,83,Bi,7.8495232,-5.5587875,198.977672841,17.2530569,7.0213368,4.9327597,-11.9742391,-0.5578346000000001,-13.3956562,9.495083500000002,2.0191448000000003,-27.5690048,14.6585757,9.4146733,12.3453842
115,84,Po,7.8176582,-6.4154515000000005,198.983640445,17.988386600000002,5.071386,6.0742948,-13.6789823,3.5396427,-16.6014002,7.8368686,3.1539490000000003,,15.1591737,7.6342588,15.755807800000001
114,85,At,7.7814883,-7.263530800000001,198.990527715,18.6107586,3.7141239,6.7772734,-15.5947657,3.2615026,-15.6643758,10.1859487,0.6390701000000001,,15.280508099999999,9.5094092,14.8320573
113,86,Rn,7.741056800000001,-8.3312349,198.998325436,19.212850900000003,2.7447103000000004,7.1318922,,6.6244607,-19.2088627,8.400845,2.1400709,,15.5062154,7.217383600000001,17.555287
112,87,Fr,7.6952599,,199.007269384,19.6252156,1.4512988,7.8167717,,6.191164,,10.8776278,-0.7127369,,15.9718272,9.660274600000001,16.3309655
124,76,Os,7.867,3.02,199.980086,11.092,,-2.235,8.049,,-2.223,6.351,11.109,10.953,9.151,6.665,1.967
123,77,Ir,7.878,5.03,199.976844,12.002,19.157,-1.635,5.67,-14.129,-2.2520000000000002,5.242,8.588000000000001,5.478,12.741,8.374,4.4270000000000005
122,78,Pt,7.8991986,0.6409158,199.971444609,12.837796200000001,17.577,-0.7469711,2.9040895,-13.618,-5.5767437,7.2817963,9.489614900000001,-0.34832029999999997,9.822000000000001,6.529,4.127
121,79,Au,7.8984915,2.2631737,199.970756558,13.8019371,16.108,-0.229488,-0.1928666,-10.1305307,-5.7653454,6.2176596,7.1403651,-6.8695201,13.374731100000002,8.0437361,6.6704312
120,80,Hg,7.9058956,-2.4560403,199.968326941,14.6915882,14.1771917,0.7163547,-3.2524098,-9.4035388,-9.5151886,8.0285191,7.6984863,-12.561584000000002,10.7883324,6.5005392,6.5629094
119,81,Tl,7.8897037,-0.7963695000000001,199.970963608,15.6611104,12.0443765,1.6665746,-6.6766536,-5.242446,-9.8868107,7.0591483,4.7901318,-18.0593335,14.617895200000001,8.3570589,9.7389265
118,82,Pb,7.8818101,-5.8802841,199.971818546,16.326051200000002,9.8744844,3.1501704,-9.3091742,-3.9937622999999998,-13.524559300000002,9.090441199999999,5.480431800000001,-22.250403300000002,11.9887022,6.9674192,9.9357754
117,83,Bi,7.848496900000001,-3.4288901000000003,199.97813129,17.139358700000003,7.4197629,4.7011089,-11.3826799,0.3998522,-13.2030628,7.6442753,2.4278101000000003,-26.504151999999998,16.407676,9.2388666,13.6300503
116,84,Po,7.8274407,-7.953789700000001,199.981812355,17.6110413,5.452183,5.9816351999999995,-12.941229100000001,1.00108,-16.1896242,9.7741726,3.4330381,,13.142974500000001,7.6095673,13.4501038
115,85,At,7.7837601,-4.9874394,199.990351099,18.421783100000003,4.1919849000000005,6.5962229,-15.121472100000002,4.5207516,-15.4993652,8.2358344,1.0380359000000001,,17.1961916,9.2692399,16.345704100000003
114,86,Rn,7.7549111,-10.1340327,199.995705335,18.912770899999998,3.1051182,7.0433611,,3.9494035,-18.843160800000003,10.5119259,2.4660481,,13.419099399999999,7.218855700000001,15.0390262
113,87,Fr,7.7003292000000005,,200.006584666,19.5867559,1.7356171,7.6218374,,7.6679846,,8.709128100000001,-0.40445380000000003,,18.074705,9.487265299999999,18.135235400000003
125,76,Os,7.849,5.0,200.984069,10.712,,-2.394,8.901,,-1.341,4.361,,12.823,10.601,7.015000000000001,
124,77,Ir,7.87,3.9010000000000002,200.978701,11.584,19.688,-1.9140000000000001,6.561,,-1.312,6.3420000000000005,8.579,7.341,11.141,8.624,2.797
123,78,Pt,7.8858337,2.66,200.974513305,12.494641900000001,18.048000000000002,-1.086,3.9218237,-12.48,-4.5719299,5.2128457,9.46,1.5303271999999999,11.3686356,6.8340000000000005,5.506
122,79,Au,7.8951752,1.2618236999999999,200.971657678,13.4495894,16.5801135,-0.5614987,0.780073,-12.120000000000001,-4.9687562,7.2319299,7.0904987,-4.9716997,11.6988012,8.3673675,4.956
121,80,Hg,7.8975607000000005,-0.48175080000000003,200.970303054,14.259099,14.8517717,0.3323295,-2.3914965,-8.352322399999998,-8.6866202,6.2305798999999995,7.7114066,-11.141363100000001,12.14203,6.7823187,7.8878907
120,81,Tl,7.891271700000001,-1.9097458,200.970820235,15.2640177,12.6649684,1.5340571,-5.751772600000001,-7.229655800000001,-9.0012389,8.2048694,4.9664821,-16.391337,13.076094900000001,8.6375921,8.046416500000001
119,82,Pb,7.8778782000000005,-3.8420269,200.972870431,16.1819344,10.3029085,2.8442822000000003,-8.749866599999999,-3.0567363999999997,-12.9717772,7.0914931,5.5127766000000005,-21.163619999999998,13.499171200000001,7.1217753,11.3296848
118,83,Bi,7.8548713,-4.9078397,200.976995017,16.7740256,7.9475511,4.5002999,-10.6395644,-1.6707498,-12.5586405,9.1297503,2.4671193,-25.017578699999998,14.5135357,9.5024919,11.7461492
117,84,Po,7.8265619,-5.7317247,200.982263799,17.4249734,5.8673738,5.799303,-12.4137535,2.4407204,-15.6045905,7.6508008,3.4395636,-28.4579829,14.9872572,7.71674,15.192678599999999
116,85,At,7.7941536,-6.6820288,200.988417058,18.108700300000002,4.5697673000000005,6.4728382,-14.3780144,2.292161,-14.8603052,9.8728659,1.1367291,,15.1601944,9.547892,14.2308117
115,86,Rn,7.7570174,-7.6959856,200.995590511,18.690202300000003,3.446526,6.8607498,-16.0442295,5.545299699999999,-18.3123092,8.1782764,2.4084901,,15.4267716,7.4653892,17.012267700000002
114,87,Fr,7.7148367,-8.3482439,201.003852491,19.325451700000002,2.1659919,7.5189119,,5.2874955,,10.6163236,-0.3000562,,15.8592264,9.682947700000001,15.9437218
113,88,Ra,7.6694108,,201.012814699,,1.0812789,8.001532599999999,,8.648299999999999,,,1.4857327,,15.8762354,7.2231738,18.8135385
126,76,Os,7.839,4.11,201.986548,10.123,,,10.162,,-0.762,5.7620000000000005,,14.815,,7.063,
125,77,Ir,7.855,6.0520000000000005,201.982136,11.213000000000001,,-2.075,7.713,,-0.971,4.872,9.09,9.34,12.620000000000001,8.494,3.736
124,78,Pt,7.8815609,1.660854,201.975639,12.2355861,18.72,-1.5170000000000001,4.6531818000000005,-15.141,-4.3627404,7.0227404,10.141,3.2484802,9.588000000000001,6.5704615,3.225
123,79,Au,7.88591,2.9923278,201.973856,13.2555242,17.361,-1.068,1.6274372000000001,-11.802,-4.7617706,6.0235944,7.9012474,-3.6021277,12.9570031,7.899773100000001,5.6919545
122,80,Hg,7.896850499999999,-1.3648906,201.970643604,13.9846783,15.3240739,0.1337923,-1.4047014999999998,-10.893575199999999,-8.2358492,7.7540984,8.233575199999999,-9.4037405,10.6055911,6.6124978,5.689792300000001
121,81,Tl,7.8862206,-0.039811,201.972108874,15.075828,13.318267500000001,1.1754578,-5.229564900000001,-6.8686846,-8.780704400000001,6.8709586,5.6068609,-15.3853127,14.2336554,8.4297025,8.759735300000001
120,82,Pb,7.8821505,-5.1897538999999995,201.972151613,15.8323866,11.015282800000001,2.5887914000000003,-7.9990388999999995,-5.5670499,-12.5829203,8.740893400000001,6.0488007,-19.6660475,11.8174261,6.982844,9.251860500000001
119,83,Bi,7.8525857,-2.809285,201.977723042,16.522916700000003,8.2815691,4.3529827999999995,-10.155747799999999,-0.8590467,-12.3010061,7.3931664,2.7687925,-23.852392000000002,16.2108105,9.3449355,12.954944900000001
118,84,Po,7.8348053,-7.3464628,201.980738934,17.1425219,6.2686535999999995,5.7009575,-11.667008599999999,0.0404925,-15.223445700000001,9.491721100000001,3.8015344,-27.016469,13.139811400000001,7.7201024,12.936567499999999
117,85,At,7.794563699999999,-4.3205458,201.988625686,17.7498488,4.802475,6.3538287,-13.696644200000001,3.5449284,-14.5590118,7.876983,1.3629113,,17.0573841,9.507777599999999,15.848912200000001
116,86,Rn,7.7693018,-9.376098400000002,201.993263982,18.4167424,3.9108193,6.7738018,-15.3494604,2.9576345,-17.934451499999998,10.2384659,2.7740901,,13.4241401,7.4128719,14.610670500000001
115,87,Fr,7.7190125,-5.973362,202.003329637,19.1746767,2.4885106,7.3853686,,6.6020083000000005,-16.906597,8.5583531,0.0800205,,17.8127992,9.525439500000001,17.5713173
114,88,Ra,7.6855684,,202.009742305,,1.5025879,7.8803036,,5.893341500000001,,10.9332349,1.8026441,,13.652128500000002,7.167566600000001,16.2811486
127,76,Os,7.814,7.1000000000000005,202.992195,8.573,,,12.24,,1.299,2.811,,17.999,,,
126,77,Ir,7.845,5.14,202.984573,10.673,,-2.065,8.773,,0.251,5.801,9.129,11.391,11.18,9.044,
125,78,Pt,7.867,3.633,202.979055,11.912,19.248,-1.665,5.759,-14.269,-3.228,4.889,10.159,5.276,11.041,6.924,4.686
124,79,Au,7.880865,2.1257592,202.975154492,12.8853743,17.881,-1.1698255,2.6178654999999997,-13.792,-3.8694521,6.8617799,7.7402869,-1.6185506,11.3080688,8.3197894,4.073
123,80,Hg,7.8874828,0.4921062,202.972872396,13.7493098,16.1064395,-0.3054191,-0.48272030000000005,-9.8660461,-7.3601019,5.9952113,8.2051921,-7.9583842,11.8423096,6.834946,6.9763772
122,81,Tl,7.886053,-0.9748265,202.972344098,14.723166800000001,13.9385458,0.9075272,-4.236416,-8.6972984,-7.892019100000001,7.8522081,5.704970599999999,-13.598702,12.612027099999999,8.6060135,7.125186800000001
121,82,Pb,7.877397,-3.2615895999999998,202.973390617,15.6580861,11.701895500000001,2.3346679,-7.475664,-4.7301441,-12.106946599999999,6.917192600000001,6.0950347,-18.6024379,13.105102800000001,7.1247997,10.363187
120,83,Bi,7.8574762,-4.2140744,202.976892077,16.238523400000002,8.9220568,4.1095879,-9.362286000000001,-2.8334451,-11.654642,8.845357,2.8732561000000003,-22.4013055,14.4569466,9.590019700000001,11.1687362
119,84,Po,7.8328632,-5.1482116,202.981416072,16.9322887,6.617728100000001,5.4959999,-11.1267739,1.3408183,-14.7870304,7.4405676000000005,3.8489356,-25.9121494,14.8289942,7.9238101,14.5864411
118,85,At,7.8036487,-5.9785623,202.986942904,17.515801800000002,5.3115434,6.2100934,-13.0390196,1.299276,-13.9593646,9.6388188,1.5100090000000002,,15.0693661,9.643131499999999,13.8543686
117,86,Rn,7.770343700000001,-7.0604572,202.993361155,18.2192682,4.240820800000001,6.6298682,-14.7853755,4.4685533,-17.356900699999997,7.980802300000001,2.8779094,,15.3162037,7.6679041,16.4040408
116,87,Fr,7.7317092,-7.7249182,203.000940867,18.8547966,2.9120882000000003,7.274873899999999,,4.1825478,-16.2698055,10.296443499999999,0.13799809999999998,,15.694632200000001,9.740922000000001,15.510708300000001
115,88,Ra,7.6898015,,203.009233907,19.4781222,1.8691988,7.736261300000001,,7.5869202,,8.544887300000001,1.7891782,,15.7235648,7.3318075,18.2481872
127,77,Ir,7.823,8.05,203.989726,9.073,,,10.82,,1.869,3.271,9.589,14.776,13.671000000000001,10.134,
126,78,Pt,7.859,2.77,203.981084,11.071,19.668,-1.495,7.07,-17.639,-2.548,6.181,10.539,7.49,9.731,7.0840000000000005,2.866
125,79,Au,7.868,4.3,203.97811,12.18,18.328,-1.245,3.956,-13.309000000000001,-3.192,5.3180000000000005,8.169,0.256,13.013,8.215,5.096
124,80,Hg,7.8855455,-0.3440781,203.973494037,13.4874743,16.5759621,-0.5158858000000001,0.41966719999999996,-12.469,-7.0001567,7.492263,8.8356752,-6.3491024,10.3736411,6.5746129,4.6969598999999995
123,81,Tl,7.8800238,0.7637453000000001,203.97386342,14.5082868,14.57103,0.4691081,-3.700143,-8.491597100000002,-7.6309052,6.6560787,6.365837900000001,-12.4708182,13.7100469,8.1805147,7.701038
122,82,Pb,7.8799326,-4.4638883,203.973043506,15.3118431,12.3424475,1.9685365,-6.7687696,-7.1295832,-11.65624,8.3946504,6.637477,-17.1396995,11.5814111,6.9350186,8.199116400000001
121,83,Bi,7.8542157,-2.3048814,203.977835687,16.0377087,9.2434498,3.9763845,-8.7706752,-2.1735887,-11.406426100000001,7.192351700000001,3.1484152,-21.2532351,16.0054884,9.4891612,12.1812539
120,84,Po,7.8390823,-6.4657938999999995,203.980310078,16.5421124,6.9783794,5.484896399999999,-10.3709299,-0.8435338000000001,-14.2497563,9.1015448,4.1051234,-24.402142700000002,13.1206158,7.9520157000000005,12.5763895
119,85,At,7.8035522,-3.905136,203.987251393,17.4227813,5.7023395,6.070406200000001,-12.4825599,2.3606705000000003,-13.7625248,7.7839624999999995,1.8534039,,16.7771247,9.5099698,15.2001565
118,86,Rn,7.7805743000000005,-8.5774239,203.991443729,17.8381911,4.6064885,6.546652,-14.0312128,2.0517321,-16.917846,9.8573888,3.0964795,,13.3357979,7.6833812,14.197452799999999
117,87,Fr,7.7346931,-5.453788899999999,204.000651972,18.6368656,3.3755273000000003,7.1702862,,5.4809444,-16.0653404,8.3404221,0.49761790000000006,,17.592676,9.5787763,17.0431521
116,88,Ra,7.7041238000000005,,204.006506855,19.1564387,2.2422842999999997,7.6366358000000005,,4.956171,,10.6115514,2.1042862,,13.6703665,7.3365796,15.8149122
128,77,Ir,7.805000000000001,7.22,204.993988,7.373,,,12.97,,3.9490000000000003,4.101,,18.221,12.381,11.794,
127,78,Pt,7.836,5.75,204.986237,9.453,20.128,-0.405,9.468,,-0.501,3.271,10.539,10.950000000000001,12.261000000000001,8.684000000000001,5.357
126,79,Au,7.86,3.717,204.980064,11.569,18.778,-1.155,5.251,-16.289,-1.951,6.251,8.239,2.495,11.651,8.986,3.716
125,80,Hg,7.8747325,1.5330835999999999,204.976073151,13.161151700000001,17.356,-0.9719289,1.4824434000000002,-11.957,-6.0129668,5.6688887999999995,9.187,-4.7663202,11.5665322,6.929318500000001,6.0508115
124,81,Tl,7.8783946,-0.0506402,204.974427318,14.2021291,15.2553006,0.15498750000000003,-2.7552329,-10.72,-6.7823052,7.5460504,6.4196254,-10.8362832,12.1592078,8.388562700000001,6.1785819
123,82,Pb,7.8743313,-2.7045927,204.974481682,15.1263154,13.0789012,1.4674513999999999,-6.2487637000000005,-6.3689852,-11.1955533,6.7316650000000005,6.7130633,-16.0603977,12.701954200000001,7.0743123,9.2215498
122,83,Bi,7.8573218,-3.544171,204.977385182,15.6833123,9.882202300000001,3.6902933,-8.0810503,-4.0084706,-10.7958419,8.490960600000001,3.2447253000000003,-19.7557529,14.4317204,9.739094,10.561252000000001
121,84,Po,7.8362168,-4.5368793,204.981190006,16.3532157,7.3128578,5.324718600000001,-9.811634,0.2994457,-13.7174648,7.251671000000001,4.1644426,-23.3252513,14.7143018,8.0935111,14.065612