N,Z,element,be_per_a,beta_decay_energy,atomic_mass,s2n,s2p,qa,q2b,qep,qbn,s1n,s1p,q4b,qda,qpa,qna
109,78,Pt,7.941168,-3.657212,186.960616976,16.13954,8.45711,4.55408,-8.567120000000001,-0.9740800000000001,-13.04151,6.89192,4.8016700000000005,-21.69809,14.36131,7.78986,13.21388
108,79,Au,7.917427,-4.909908000000001,186.964543155,17.312330000000003,7.27023,4.75056,-10.58325,-1.14446,-12.56006,9.3843,2.45237,-26.64457,14.371110000000002,9.170459999999999,12.22941
107,80,Hg,7.886987,-5.673343,186.969814158,18.076900000000002,6.00773,5.229640000000001,-13.13097,2.45754,-16.30263,7.65015,3.69205,-30.94653,14.451020000000002,7.06484,14.86271
106,81,Tl,7.852464,-7.457628,186.975904743,18.82948,5.16439,5.32198,-16.06132,1.98129,-15.833879999999999,10.629290000000001,1.19446,,14.44989,8.76843,13.520520000000001
105,82,Pb,7.8084,-8.603688,186.983910836,19.588369999999998,3.38123,6.3928,-17.81556,6.263170000000001,-19.91206,8.37625,2.38932,,15.48159,6.76034,17.00841
104,83,Bi,7.758208,-9.211868,186.993147276,20.29,1.20347,7.77907,,6.21437,-18.555560000000003,11.30838,-1.00978,,15.86876,9.532309999999999,16.14637
103,84,Po,7.704763,,187.003036624,,0.20812,7.978899999999999,,10.22165,,9.34369,1.3141600000000002,,15.775,6.62958,19.52652
117,71,Lu,7.902,7.089,187.97446,9.723,,,9.822000000000001,,0.9550000000000001,4.282,,15.226,,9.574,
116,72,Hf,7.936,2.733,187.96685,10.597,,-0.764,7.789000000000001,,-2.055,6.134,10.588000000000001,10.258000000000001,10.042,7.873,3.267
115,73,Ta,7.946321,5.055781,187.963916,11.14714,17.98,0.375,5.40478,-13.321,-1.7793800000000002,4.787800000000001,8.084,4.732880000000001,13.52299,9.57183,5.922
114,74,W,7.969052,0.34900000000000003,187.958488395,12.30192,16.821540000000002,0.40665,2.46942,-13.14,-5.52265,6.83516,9.06124,-0.84688,10.65052,7.59054,5.29839
113,75,Re,7.966747000000001,2.120422,187.958113728,13.232360000000002,14.987219999999999,1.39765,-0.6718999999999999,-9.41024,-5.86918,5.87165,6.40181,-6.6455,14.202520000000002,9.235040000000001,8.02388
112,76,Os,7.973864,-2.792326,187.955837361,14.27992,13.20665,2.14322,-3.3163000000000005,-8.52223,-9.659180000000001,7.98961,7.2097299999999995,-10.93532,11.50066,7.545850000000001,7.89696
111,77,Ir,7.95485,-0.5239790000000001,187.958835046,15.3152,10.99576,3.44981,-5.9736,-4.4174,-9.73117,6.86685,4.41493,-16.00851,15.36584,9.325030000000002,11.12052
110,78,Pt,7.947902,-5.4496210000000005,187.95939756,16.099120000000003,9.39893,4.00669,-7.61901,-3.8909499999999997,-12.86441,9.2072,5.56053,-20.00573,12.06222,7.37868,10.631350000000001
109,79,Au,7.914753,-2.169394,187.965247969,16.79909,7.7768999999999995,4.81463,-10.03491,-0.11091,-12.32469,7.41479,2.9752300000000003,-25.17662,16.20394,9.18089,13.61065
108,80,Hg,7.899052,-7.865513,187.96757691,17.80545,6.91541,4.70741,-12.386709999999999,-0.80583,-15.82864,10.155299999999999,4.46305,-29.6576,12.22374,6.52028,12.132629999999999
107,81,Tl,7.853053,-4.521198,187.976020886,18.592419999999997,5.19949,5.557390000000001,-15.14171,3.4024699999999997,-15.420760000000001,7.9631300000000005,1.5074400000000001,,16.9135,8.71132,15.16814
106,82,Pb,7.824843,-10.620515,187.980874592,19.275810000000003,3.8540500000000004,6.10885,-17.27089,3.0137600000000004,-19.50325,10.89956,2.65959,,12.782219999999999,6.80659,14.014870000000002
105,83,Bi,7.764189000000001,-6.650374,187.992276184,20.191110000000002,1.88602,7.2636400000000005,,7.96093,-18.0946,8.88273,-0.5033,,18.19814,9.21059,18.20946
104,84,Po,7.724653,,187.999415655,20.78792,0.44023,8.08229,,7.1536800000000005,,11.44423,1.45001,,13.312700000000001,6.556,16.643310000000003
117,72,Hf,7.917,4.667,188.97084,10.488,,-1.087,8.455,,-1.622,4.355,10.661,11.824,11.128,7.912,
116,73,Ta,7.938,3.7880000000000003,188.96583,11.076,18.827,-0.366,6.15,-15.328000000000001,-1.233,6.288,8.239,6.62,11.698,9.459,4.027
115,74,W,7.953454,2.361507,188.961763,11.856200000000001,17.379,0.27735000000000004,3.3692100000000003,-12.027000000000001,-4.67204,5.02104,9.29448,0.85181,11.98882,7.85405,6.45308
114,75,Re,7.961809000000001,1.007702,188.959227817,12.9052,15.66144,0.99033,0.47054,-11.65598,-4.91313,7.03355,6.6002,-4.39709,12.63573,9.393540000000002,6.27489
113,76,Os,7.963002,-0.537159,188.958146005,13.91043,13.66072,1.9761300000000002,-2.5174000000000003,-7.6079,-8.71315,5.9208300000000005,7.2589,-9.36034,12.94054,7.8044,9.168180000000001
112,77,Ir,7.9560200000000005,-1.9802380000000002,188.958722669,15.042850000000001,11.81105,2.9445300000000003,-4.86763,-6.72175,-8.699969999999999,8.176,4.601319999999999,-13.83349,13.48016,9.41441,9.123899999999999
111,78,Pt,7.941403,-2.887394,188.960848542,15.92693,9.82834,3.91162,-6.84295,-2.62109,-12.169360000000001,6.71974,5.41341,-18.625310000000002,13.79083,7.56705,12.177
110,79,Au,7.921987000000001,-3.9555540000000002,188.963948286,16.69675,8.610520000000001,4.32868,-8.965850000000001,-2.52602,-11.451360000000001,9.28196,3.0500000000000003,-23.517290000000003,13.8139,9.146540000000002,11.236790000000001
109,80,Hg,7.8969190000000005,-5.0103,188.968194748,17.65111,7.51929,4.63682,-11.78237,0.9055599999999999,-15.36132,7.4958,4.544060000000001,-28.204400000000003,14.11224,6.95251,13.884440000000001
108,81,Tl,7.866270000000001,-6.772066,188.973573527,18.31415,6.1662,4.817130000000001,-14.551440000000001,0.46624000000000004,-14.87222,10.35102,1.70316,,14.21264,8.787049999999999,12.74515
107,82,Pb,7.826299000000001,-7.779374,188.980843639,18.99971,4.30405,5.91472,-16.42203,5.06891,-18.72066,8.10015,2.7965999999999998,,15.31136,6.90663,16.341459999999998
106,83,Bi,7.7809989999999996,-8.642656,188.989195141,19.82402,2.1980100000000005,7.2681700000000005,,4.98277,-17.59166,10.94129,-0.46157,,15.6331,9.48142,15.468350000000001
105,84,Po,7.731131,,188.998473415,20.393240000000002,1.01299,7.6943,,9.10423,,8.949010000000001,1.51629,,15.67207,6.58826,18.906419999999997
118,72,Hf,7.907,3.483,189.973129,10.294,,,9.352,,-1.272,5.939,,13.678,9.471,7.414000000000001,
117,73,Ta,7.921,5.869,189.96939,11.044,19.301000000000002,-0.728,7.123,,-0.967,4.755,8.64,8.241,13.077,9.168000000000001,4.713
116,74,W,7.947573,1.253517,189.963089066,11.85714,18.081,-0.38301999999999997,4.3254600000000005,-14.509,-4.47459,6.83609,9.842,2.92414,9.940520000000001,7.37729,4.081
115,75,Re,7.9500530000000005,3.071941,189.96174336,12.76165,16.601740000000003,0.5467799999999999,1.11771,-11.096,-4.7204,5.7281,7.30726,-2.8023000000000002,13.742790000000001,9.132200000000001,6.90612
114,76,Os,7.962104,-1.9542270000000002,189.958445496,13.71317,14.6179,1.37584,-1.40132,-10.379209999999999,-8.3295,7.79234,8.0177,-7.33707,11.01985,7.37276,6.842600000000001
113,77,Ir,7.947701,0.552906,189.960543445,14.55127,12.31467,2.7486300000000004,-3.9200100000000004,-6.063470000000001,-8.35551,6.37527,5.055770000000001,-12.38152,15.0945,9.32946,10.10934
112,78,Pt,7.946493,-4.472917000000001,189.959949876,15.62816,10.747160000000001,3.26858,-5.9357500000000005,-5.6086800000000006,-11.79581,8.90842,6.14583,-16.88981,11.74926,7.10698,9.5589
111,79,Au,7.918834,-1.462836,189.96475175,16.604860000000002,9.06657,3.9139000000000004,-8.46151,-1.6729200000000002,-11.278450000000001,7.3229,3.6531599999999997,-22.23395,15.698200000000002,8.71557,12.36224
110,80,Hg,7.907017,-6.998670000000001,189.966322169,17.31142,8.12771,4.06883,-10.954049999999999,-2.1903200000000003,-14.82591,9.815610000000001,5.07771,-26.80686,11.71142,6.5212,10.96075
109,81,Tl,7.866064000000001,-3.955382,189.973835551,18.178259999999998,6.57866,4.91791,-13.772450000000001,1.92096,-14.59931,7.82724,2.0345999999999997,,16.540689999999998,8.60996,14.302209999999999
108,82,Pb,7.8411290000000005,-9.817066,189.978081828,18.744080000000004,4.79267,5.69754,-15.85281,1.92079,-18.4233,10.643930000000001,3.0895200000000003,,12.63056,6.892,13.34769
107,83,Bi,7.785342,-6.035742,189.988620883,19.54753,2.84112,6.86212,,6.72755,-17.24889,8.60624,0.044520000000000004,,17.92643,9.25144,17.491410000000002
106,84,Po,7.749458,,189.995100519,20.16216,1.3265799999999999,7.693270000000001,,5.99123,,11.21315,1.7881500000000001,,13.341660000000001,6.68349,16.06952
118,73,Ta,7.9110000000000005,4.684,190.97156,10.805,,-1.337,7.859,,-0.181,6.05,8.75,10.217,11.381,9.251,2.945
117,74,W,7.9314350000000005,3.174124,190.966531,11.701270000000001,18.592,-0.785,5.21901,-13.435,-3.61166,4.8651800000000005,9.952,4.522060000000001,11.364,7.29991,5.349
116,75,Re,7.943957,2.044889,190.963123437,12.51389,17.099,0.12033,2.35846,-13.126,-3.7138400000000003,6.78578,7.25695,-0.55239,11.97805,9.18157,4.90813
115,76,Os,7.9505680000000005,0.31357,190.960928159,13.55107,15.355590000000001,1.08387,-0.6969500000000001,-9.30184,-7.71296,5.75873,8.04833,-5.8032900000000005,12.29466,7.48568,7.91903
114,77,Ir,7.948113,-1.010518,190.960591527,14.4018,13.30765,2.08281,-2.91085,-8.3619,-7.47362,8.02653,5.28996,-10.42581,12.9888,9.292530000000001,7.95446
113,78,Pt,7.938727,-1.900333,190.961676363,15.37152,11.289430000000001,3.09579,-5.10634,-4.27944,-10.936020000000001,6.463100000000001,6.23366,-15.467120000000001,13.46216,7.51073,11.0854
112,79,Au,7.924681,-3.2060079999999997,190.963716455,16.35858,9.926260000000001,3.32655,-7.51496,-4.33333,-10.498520000000001,9.03569,3.7804200000000003,-20.558560000000003,13.38225,8.887080000000001,10.19341
111,80,Hg,7.9038,-4.308951,190.967158247,17.108130000000003,8.70049,3.66824,-10.36078,-0.5744199999999999,-14.29119,7.292520000000001,5.04733,-25.52316,13.70086,6.643470000000001,12.87543
110,81,Tl,7.877144,-6.051827,190.971784096,17.80948,7.278930000000001,4.319979999999999,-13.043600000000001,-0.73838,-13.93762,9.98224,2.2012199999999997,-30.14686,14.054260000000001,8.78302,11.73476
109,82,Pb,7.841363,-6.991772,190.978281,18.52972,5.18266,5.4619,-15.162379999999999,3.85061,-17.70286,7.88579,3.14806,,15.095790000000001,6.96934,15.6172
108,83,Bi,7.800661,-8.170612,190.985786975,19.31732,3.20119,6.78032,-17.10326,3.84371,-16.746830000000003,10.71108,0.11167,,15.31549,9.43991,14.743459999999999
107,84,Po,7.753786,-8.932653,190.994558488,19.789360000000002,1.8026400000000002,7.49331,,8.05894,,8.57622,1.7581300000000002,,15.70673,6.990010000000001,18.39287
106,85,At,7.702923,,191.004148086,,0.64936,7.8222700000000005,,7.17453,,,-1.13878,,15.99673,9.272290000000002,16.705009999999998
119,73,Ta,7.894,6.586,191.97524,10.693,,-1.698,8.525,,0.041,4.643,,11.772,12.677,8.963000000000001,
118,74,W,7.924,1.939,191.96817,11.41,19.197,-1.195,6.2330000000000005,,-3.37,6.545,10.447000000000001,6.639,9.574,7.0440000000000005,3.1590000000000003
117,75,Re,7.930238,4.293366,191.966088,12.09563,17.654,-0.40171,3.24674,-12.386000000000001,-3.2649600000000003,5.309850000000001,7.70162,1.18329,13.504290000000001,8.89277,5.8870000000000005
116,76,Os,7.948525,-1.0466300000000002,191.961478881,13.31705,16.07782,0.3607,0.40626999999999996,-11.99499,-7.24475,7.55832,8.820860000000001,-3.87064,10.464450000000001,6.96091,5.38175
115,77,Ir,7.938999,1.452896,191.962602485,14.22465,13.77767,1.75633,-2.06345,-7.77424,-7.208640000000001,6.19812,5.72935,-8.96331,14.583020000000001,9.01524,8.78988
114,78,Pt,7.942491,-3.516341,191.961042736,15.12464,12.158629999999999,2.4238600000000003,-4.2768999999999995,-7.18224,-10.56187,8.66154,6.86867,-13.73244,11.175889999999999,7.025180000000001,8.34469
113,79,Au,7.920102,-0.760563,191.964817684,16.08122,10.59651,3.1478800000000002,-6.89987,-3.35233,-10.25154,7.04553,4.362850000000001,-19.23758,15.24514,8.561290000000001,11.323870000000001
112,80,Hg,7.912066,-6.139307,191.965634182,16.78349,9.283040000000002,3.3844600000000002,-9.455530000000001,-3.60229,-13.79992,9.490969999999999,5.50262,-23.94089,11.53279,6.4344600000000005,10.1042
111,81,Tl,7.876016,-3.3162260000000003,191.972225,17.64285,7.61665,4.07415,-12.33771,0.6366900000000001,-13.71244,7.66062,2.5693200000000003,-28.798099999999998,16.20926,8.61821,13.356110000000001
110,82,Pb,7.854669,-9.021485,191.975785115,18.28201,5.763260000000001,5.22098,-14.48536,0.74691,-17.387990000000002,10.39622,3.56204,,12.52681,6.92414,12.716780000000002
109,83,Bi,7.8036080000000005,-5.4638729999999995,191.985470078,19.07759,3.74045,6.37695,-16.46039,5.45944,-16.537119999999998,8.36651,0.59239,,17.59292,9.173549999999999,16.727970000000003
108,84,Po,7.771075,-10.996516,191.991335788,19.64946,2.23196,7.31963,,4.87149,-20.0059,11.07324,2.12029,,13.23972,6.85805,15.419770000000002
107,85,At,7.709727,,192.003141034,,1.05251,7.69563,,8.87623,,9.00938,-0.70562,,18.2005,9.21191,18.63692
120,73,Ta,7.884,5.417,192.977595,10.521,,,9.362,,0.708,5.878,,13.666,,9.024000000000001,
119,74,W,7.908,3.9450000000000003,192.97178,11.253,,-1.549,7.1080000000000005,,-2.769,4.7090000000000005,10.512,8.193,10.916,7.09,4.39
118,75,Re,7.9239370000000005,3.162652,192.967545,12.02398,18.318,-0.8270000000000001,4.304600000000001,-14.457,-2.4207600000000005,6.71413,7.871,3.17318,11.65534,9.01473,3.928
117,76,Os,7.93627,1.141946,192.964149753,13.14174,16.79606,-0.20167,1.08532,-11.034,-6.630050000000001,5.58342,9.09444,-2.33211,11.66681,7.105600000000001,6.63443
116,77,Ir,7.938133,-0.056628000000000005,192.962923824,13.97011,14.76388,1.01789,-1.13141,-10.236379999999999,-6.319100000000001,7.77199,5.943020000000001,-7.05902,12.56976,9.035590000000001,6.746
115,78,Pt,7.9337860000000004,-1.0747870000000002,192.962984616,14.924,12.662360000000001,2.08222,-3.41743,-5.8863900000000005,-9.77881,6.26247,6.933020000000001,-12.285120000000001,12.939950000000001,7.13799,9.874559999999999
114,79,Au,7.924164,-2.3426419999999997,192.964138447,15.74955,11.27401,2.61985,-5.92761,-5.85823,-9.464590000000001,8.70402,4.40533,-17.52026,13.00422,8.76568,8.995120000000002
113,80,Hg,7.907972,-3.5849670000000002,192.966653377,16.61292,9.94188,2.98225,-8.867690000000001,-2.06269,-13.26125,7.1219399999999995,5.5790299999999995,-22.73686,13.446530000000001,6.63541,11.89067
112,81,Tl,7.885344,-5.282723,192.970501997,17.336900000000004,8.25725,3.67983,-11.592649999999999,-1.99407,-12.992510000000001,9.67628,2.75463,-27.40989,13.82549,8.75754,11.00272
111,82,Pb,7.853919,-6.309931,192.976173234,18.106009999999998,6.18053,5.007,-13.86917,2.52809,-16.731270000000002,7.70979,3.6112100000000003,-31.2374,14.79926,7.04159,14.822610000000001
110,83,Bi,7.817171,-7.559241,192.982947223,18.78785,4.17955,6.30663,-15.81724,2.69872,-15.885209999999999,10.42134,0.61751,,15.05737,9.396139999999999,14.133870000000002
109,84,Po,7.77395,-8.257998,192.991062403,19.399220000000003,2.6721399999999997,7.093800000000001,-17.36823,6.94173,-19.322490000000002,8.32597,2.07975,,15.62484,7.13832,17.73773
108,85,At,7.7271090000000004,-9.110231,192.999927728,20.07387,1.4059100000000002,7.57242,,6.17824,,11.06449,-0.7143700000000001,,15.71222,9.36057,16.17866
107,86,Rn,7.675852,,193.009707964,,0.46630000000000005,8.040000000000001,,9.8246,,,1.17191,,15.8898,,19.25315
121,73,Ta,7.8660000000000005,7.227,193.981428,10.379,,,9.937,,0.916,4.501,,15.232000000000001,,,
120,74,W,7.899,2.711,193.97367,11.019,,-1.921,7.909,,-2.366,6.311,10.945,10.234,9.248,6.83,
119,75,Re,7.909,5.198,193.97076,11.791,18.751,-1.149,5.295,-13.656,-1.9140000000000001,5.077,8.239,4.9750000000000005,13.123000000000001,8.803,4.901
118,76,Os,7.932022,0.09659999999999999,193.965179477,12.695549999999999,17.364,-0.47770999999999997,2.32496,-13.437000000000001,-5.97019,7.11214,9.49244,-0.25116,9.86452,6.77924,4.38747
117,77,Ir,7.9284870000000005,2.228362,193.965075773,13.838780000000002,15.52082,0.6792100000000001,-0.31977,-9.58904,-6.12342,6.06679,6.4263900000000005,-5.59422,14.061290000000001,8.727530000000002,7.46499
116,78,Pt,7.935941,-2.548134,193.962683527,14.61425,13.45582,1.52278,-2.57613,-8.65475,-9.42657,8.351780000000002,7.512810000000001,-10.55213,10.786299999999999,6.81274,7.28152
115,79,Au,7.918774000000001,-0.027991,193.965419062,15.582450000000001,11.95432,2.11669,-5.274439999999999,-4.96467,-9.22107,6.878430000000001,5.0213,-16.183120000000002,14.78733,8.35036,10.14322
114,80,Hg,7.914597,-5.246454,193.965449111,16.31503,10.47343,2.6975900000000004,-7.9760100000000005,-4.99331,-12.77805,9.19308,6.068090000000001,-21.17929,11.29898,6.47801,9.16069
113,81,Tl,7.883520000000001,-2.729552,193.971081411,17.207880000000003,8.74332,3.47113,-10.90868,-0.82164,-12.81432,7.531600000000001,3.16428,-26.217330000000004,15.784870000000002,8.51846,12.50681
112,82,Pb,7.865418,-8.179128,193.974011706,17.79455,6.77433,4.73784,-13.203280000000001,-0.43473,-16.3947,10.08477,4.0197,-29.931430000000002,12.375110000000001,6.9390600000000004,12.030360000000002
111,83,Bi,7.819225,-5.024156,193.982792362,18.63691,4.73451,5.9183,-15.30865,4.15943,-15.77481,8.21557,1.12329,,17.23801,9.066360000000001,15.900540000000001
110,84,Po,7.789294,-10.284492,193.988186015,19.07663,3.02658,6.98707,-16.728150000000003,3.90086,-19.008650000000003,10.75065,2.4090700000000003,,13.24069,7.09875,14.872860000000001
109,85,At,7.732249,-6.443658,193.999226872,19.78865,1.76357,7.4545,,7.87542,-17.83439,8.72416,-0.31618,,18.0613,9.212629999999999,18.165580000000002
108,86,Rn,7.695001,,194.006144424,,0.78378,7.86242,,6.7598400000000005,,11.39073,1.4981600000000002,,13.508450000000002,6.72363,16.43863
121,74,W,7.882000000000001,4.569,194.977445,10.866,,,8.502,,-1.844,4.555,10.999,11.784,10.571,6.918,
120,75,Re,7.902,3.9330000000000003,194.97254,11.49,19.287,-1.512,6.113,-15.568,-1.215,6.413,8.342,6.988,11.419,8.935,3.1310000000000002
119,76,Os,7.917744,2.1806579999999998,194.968318,12.25994,17.803,-0.76034,3.2822600000000004,-12.274000000000001,-5.0512,5.1478,9.564,1.5018,11.430850000000001,6.94129,5.784
118,77,Ir,7.924915,1.101598,194.965976967,13.29865,16.03855,0.23313,0.87478,-11.744,-5.0035,7.23186,6.54611,-3.537,12.412840000000001,9.05399,5.54298
117,78,Pt,7.926552,-0.22681700000000002,194.964794353,14.45688,13.977500000000001,1.17642,-1.7804600000000002,-7.64771,-8.653229999999999,6.1051,7.5511099999999995,-9.08616,12.453190000000001,6.90577,8.73474
116,79,Au,7.921377000000001,-1.5536379999999999,194.965037851,15.30484,12.60874,1.71681,-4.41178,-7.32429,-8.4544,8.42641,5.09593,-14.54147,12.62338,8.58548,7.91493
115,80,Hg,7.909397,-2.858145,194.966705751,16.09385,11.11173,2.2599299999999998,-7.3057,-3.54229,-12.147219999999999,6.90076,6.0904300000000005,-19.957130000000003,13.10223,6.62278,10.92147
114,81,Tl,7.890728,-4.447555,194.969774096,16.82067,9.328370000000001,3.21774,-10.12969,-3.2322800000000003,-12.01863,9.28907,3.2602700000000002,-24.68495,13.61774,8.720360000000001,10.26327
113,82,Pb,7.863908,-5.682131999999999,194.974548743,17.65584,7.22346,4.45929,-12.651430000000001,1.18728,-15.750200000000001,7.57107,4.05917,-28.75797,14.48033,7.02861,13.95026
112,83,Bi,7.830757,-6.969303,194.980648762,18.28364,5.12629,5.832470000000001,-14.55527,1.6229600000000002,-15.09222,10.06807,1.10659,,14.87973,9.39451,13.49309
111,84,Po,7.791005,-7.585964,194.988130617,18.87358,3.4397100000000003,6.74994,-16.106540000000003,5.86271,-18.40741,8.12292,2.31642,,15.53911,7.3423300000000005,17.146160000000002
110,85,At,7.7480910000000005,-8.520575000000001,194.996274485,19.54561,2.16368,7.34414,,5.269550000000001,-17.26511,10.82145,-0.24539,,15.56583,9.46442,15.71064
109,86,Rn,7.7003829999999995,,195.005421699,20.13526,1.20234,7.694100000000001,,8.76597,,8.744530000000001,1.51853,,15.82841,6.98848,18.76734
122,74,W,7.872,3.662,195.979731,10.497,,,9.397,,-1.373,5.942,,13.764000000000001,9.13,6.854,
121,75,Re,7.8870000000000005,5.735,195.9758,11.448,19.82,-1.903,6.893,,-1.102,5.035,8.821,8.597,12.695,8.609,3.974
120,76,Os,7.912229000000001,1.158388,195.969643277,11.98463,18.329,-1.053,4.3674,-14.556000000000001,-4.65617,6.83683,9.987,3.54884,9.671,6.81859,3.656
119,77,Ir,7.914148,3.209016,195.968399696,13.04642,16.777,-0.27158,1.7032100000000001,-11.146,-4.71296,5.81456,7.21287,-1.9389,13.710420000000001,8.82285,6.442550000000001
118,78,Pt,7.926529,-1.5058030000000002,195.964954675,14.02707,14.78734,0.81277,-0.81857,-10.42189,-8.1488,7.92198,8.24123,-7.2962,10.598,6.75578,6.39618