N,Z,element,be_per_a,beta_decay_energy,atomic_mass,s2n,s2p,qa,q2b,qep,qbn,s1n,s1p,q4b,qda,qpa,qna
87,59,Pr,8.280325000000001,4.25243,145.91768763,12.0655342,16.4017687,0.9255479000000001,2.780874,-11.1271319,-3.3128,5.118814,6.8953988,0.4441167,14.4692627,9.796947099999999,7.1443834
86,60,Nd,8.3040927,-1.471556,145.913122459,13.3205242,15.071916400000001,1.1820635,0.070444,-11.1478287,-7.7297281,7.5652299,8.588897000000001,-4.8400931,10.535478900000001,7.0063386,6.3268642
85,61,Pm,8.288655,1.542,145.91470224,14.18088,13.281714299999999,1.9070907,-2.3367573000000004,-7.117341000000001,-6.8742711,6.2581722,5.311327,-11.6907162,15.0044749,9.4120052,9.260241500000001
84,62,Sm,8.2938581,-3.8787573,145.913046835,15.1733704,11.8262743,2.5287792,-4.9105371,-6.853327,-11.0761543,8.4162711,7.017825200000001,-18.441432799999998,11.130563200000001,6.8283589000000005,8.6523522
83,63,Eu,8.2619327,-1.0317798,145.917210852,17.641064600000004,10.2794287,1.5990169,-9.353959000000001,-3.1390679,-12.262295400000001,7.1973970000000005,3.7551668,-25.8793761,15.5588301,7.263587,11.489463200000001
82,64,Gd,8.2495072,-8.3221791,145.918318513,20.468948100000002,8.6981392,0.4711904,-13.530895600000001,-2.7233870000000002,-17.7574485,11.2305156,5.3832702,-31.7638037,10.2441584,3.0195428000000004,9.077713900000001
81,65,Tb,8.1871474,-5.2087165,145.927252739,21.5380926,6.722411699999999,1.1203696,-16.5254172,2.9389089,-17.5923547,9.4352694,2.1259895,-36.708,14.7066741,5.331722,12.124069
80,66,Dy,8.146112800000001,-11.3167007,145.932844526,22.1274726,5.3733585,1.9796787,-18.2329081,3.0827271,-21.5061325,12.3836382,3.4442059,,10.5240671,2.72832,11.3227855
79,67,Ho,8.0632426,-6.9162074,145.944993503,22.7713425,3.4479814,2.8963793,-20.183,7.8724948,-20.069,10.189431800000001,0.2845905,,16.042671300000002,5.7947774,14.827367700000002
78,68,Er,8.0105127,-13.267,145.952418357,23.857,2.3298705,3.373,,6.6316169,-24.811,13.153,2.4908774,,10.998308100000001,2.59,13.4933318
77,69,Tm,7.914000000000001,,145.966661,25.039,1.024,3.77,,10.776,,11.544,-0.8956999,,16.263,4.969,16.639
93,54,Xe,8.072000000000001,9.52,146.954482,7.049,26.968,-4.2940000000000005,17.864,,4.839,2.516,14.148,29.614,9.441,7.795,-0.533
92,55,Cs,8.131801000000001,8.343963100000002,146.944261512,8.0082848,25.368000000000002,-3.555,14.7583246,-23.669,4.8748779,4.6810103,11.2540931,23.5240206,10.284071599999999,9.816284,-0.9430000000000001
91,56,Ba,8.1832405,6.4143615,146.9353039,8.8904888,23.3486406,-2.4860693,11.749866200000001,-19.5980562,0.8858201,3.4690852,12.242626399999999,17.8827588,10.5011953,7.871381500000001,2.2546679
90,57,La,8.2215536,5.3355046,146.9284178,9.9857078,21.2019154,-1.4277944,8.7656959,-18.6569879,0.8761532999999999,5.5285415,9.1010997,12.3635868,11.5485928,9.9527878,2.2393669
89,58,Ce,8.252527400000002,3.4301913,146.9226899,11.0894793,19.075661,-0.5016125,6.1328926,-14.4366043,-3.4117335,4.4593514,10.0816991,7.2521461,11.5322307,7.6998131999999995,5.3996302
88,59,Pr,8.27054,2.7027013,146.919007438,11.9607388,17.1867097,0.3024585,3.5978909,-13.5118904,-2.5894949,6.8419248,7.1071957,2.1005181,12.3337725,9.8519041,5.0519689
87,60,Nd,8.283603600000001,0.8951896,146.916105969,12.857426100000001,15.657678,1.034668,1.1192534,-9.809897000000001,-6.7637522,5.2921962,8.762279200000002,-2.7898665,12.190003,7.467849,7.9315498
86,61,Pm,8.284371199999999,0.22406379999999998,146.915144944,13.9171139,13.9939358,1.6012998,-1.4973729,-9.6574688,-6.116941700000001,7.658941700000001,5.405038800000001,-8.299310400000001,13.1008274,9.5700994,7.355006400000001
85,62,Sm,8.2805734,-1.7214367,146.914904401,14.7572767,12.4119856,2.3113466,-3.9091199000000003,-5.6291026,-10.2197629,6.341005600000001,7.1006586,-15.0700008,12.7122654,7.0141238,10.1283825
84,63,Eu,8.2635409,-2.1876833,146.91675244,15.695723200000002,10.8550471,2.991137,-6.8019376000000005,-5.379221899999999,-9.530106,8.4983262,3.8372219000000003,-21.7875102,13.817603100000001,9.2850701,9.5179075
83,64,Gd,8.243336600000001,-4.6142543,146.919101014,18.5729383,9.283462799999999,1.7352911,-11.1608809,-1.6495386,-15.6646019,7.3424228000000005,5.5282959,-28.7491138,13.345403200000002,5.1263018,12.2551004
82,65,Tb,8.206625,-6.5466266,146.92405462,20.4856169,7.3290916,1.0737214,-14.9855726,-0.9140416,-16.2590641,11.050347599999998,1.9458214,-34.768266600000004,12.8947591,5.8808928,10.5229032
81,66,Dy,8.156768,-8.438946,146.931082712,22.0960757,5.8473635,1.610348,-17.588232899999998,4.6008051,-21.029138200000002,9.7124375,3.721374,,12.9144528,3.0361958000000002,13.209866400000001
80,67,Ho,8.0940381,-9.1492869,146.940142293,22.779624000000002,3.9353503,2.2371754999999998,-19.782694,4.7175720000000005,-19.5063996,12.5901922,0.4911445,,13.1963135,5.6770453,12.2574889
79,68,Er,8.026476,-10.633407100000001,146.949964456,23.51,2.9431488,3.1362191,,8.658142400000001,-23.624,10.3571127,2.6585583,,13.223106,2.8657616,15.608679200000001
78,69,Tm,7.9488178,,146.961379887,24.534,1.432236,3.648,,7.9748488,,12.99,-1.0586414,,13.977,5.497,14.2815157
94,54,Xe,8.047,8.261000000000001,147.958508,6.837,,-4.854,18.895,,5.199,4.321,14.738,31.749000000000002,7.601,7.345,-2.993
93,55,Cs,8.097546900000001,10.6339614,147.949639026,7.7432056000000005,25.949,-4.006,15.7977921,-23.0,5.2817677000000005,3.0621954000000002,11.8,25.6245026,11.754807699999999,9.4464425,-0.134
92,56,Ba,8.1641118,5.1638307,147.938223,8.8212788,24.1679028,-3.0975257000000003,12.8535131,-22.434,1.0621679,5.3521936,12.9138097,19.8631546,8.476276200000001,7.3735679,-0.40517190000000003
91,57,La,8.1937165,7.6896824,147.9326794,9.630204299999999,21.976303700000003,-1.8622958,9.8267106,-18.0776404,1.2338418,4.1016628,9.7336773,14.1571348,12.868333699999999,9.671496300000001,2.9920842
90,58,Ce,8.2403876,2.1370282,147.924424186,10.9151919,20.1100978,-1.0562103999999999,7.0096415,-17.423359700000002,-3.0256491999999997,6.455840500000001,11.0089982,8.9376423,9.533556500000001,7.3009564000000005,2.7641609
89,59,Pr,8.2495409,4.8726133,147.922129992,12.0046023,17.8922209,-0.1107086,4.3304242,-13.1460264,-2.4599761,5.1626774,7.810521800000001,3.7620296,13.801223,9.3956613,5.9462752000000005
88,60,Nd,8.2771778,-0.5421891000000001,147.916899027,12.6247856,16.3601394,0.5989604000000001,1.9280007000000001,-12.6831351,-6.437399800000001,7.3325894,9.252943799999999,-1.1386467,9.9762276,7.0819798,5.305395000000001
87,61,Pm,8.2682283,2.4701898,147.917481091,13.5541525,14.7703325,1.4597955999999999,-0.5683946,-8.710754699999999,-5.6711469,5.8952108,6.0080534,-6.3289299,14.7708466,9.4301829,8.4065159
86,62,Sm,8.279632600000001,-3.0385844000000004,147.914829233,14.482342300000001,12.9880924,1.9870458000000002,-3.0666474,-8.478243200000001,-9.8627734,8.1413368,7.5830536,-11.476669900000001,10.8291008,6.7954949,7.742340100000001
85,63,Eu,8.2538155,-0.028063,147.918091288,15.3225152,11.4210639,2.6937185,-5.7605353,-4.5444692,-9.0118723,6.8241890000000005,4.3204053,-18.3063158,15.4096852,9.217980299999999,10.616426299999999
84,64,Gd,8.2483398,-5.7324723,147.918121414,16.326232,9.851000899999999,3.2712911,-8.4100225,-4.2923423000000005,-13.5980636,8.9838093,6.013779,-24.790422200000002,11.558991,6.5861602,10.0283903
83,65,Tb,8.2043207,-2.6775501,147.924275476,18.9159388,7.9972859,2.6573119000000003,-12.545780500000001,-0.28130669999999997,-14.4122179,7.8655913,2.46899,-31.7719129,16.2596834,7.2537341,13.1009795
82,66,Dy,8.180943000000001,-9.8682304,147.927149944,21.447105200000003,6.3515156,1.4751987,-16.3803997,0.2085602,-20.1736137,11.734667700000001,4.4056941,-37.63,10.615054500000001,3.4043513,10.7136312
81,67,Ho,8.1089797,-6.5121694,147.937743925,22.8955755,4.8054643,1.9521054999999998,-19.226132399999997,5.4625362,-19.454670200000002,10.3053834,1.0840903000000002,,15.2745683,5.1154964000000005,14.054928700000001
80,68,Er,8.0596924,-12.713963,147.944735026,23.2996135,3.5020115,2.6661783,-21.249,5.428078999999999,-23.575908,12.9425008,3.010867,,10.470037,2.5051714,12.4100127
79,69,Tm,7.968501100000001,-8.535,147.958384026,23.852,2.1047491000000003,3.4195708000000002,,9.703096,,10.861945,-0.5538092,,16.2677926,5.339,16.0014814
78,70,Yb,7.906000000000001,,147.967547,,0.486,3.9530000000000003,,9.089,,,1.544,,11.536,2.217,14.657
94,55,Cs,8.073,9.531,148.953516,7.522,26.677,-4.594,16.92,,6.174,4.46,11.939,27.740000000000002,9.811,9.519,-2.113
93,56,Ba,8.131849500000001,7.389301000000001,148.943284,8.70922,25.009,-3.7621983,13.839300999999999,-21.47,1.8068043,3.3570264,13.2086408,21.5449153,9.80026,7.343816,0.7707331000000001
92,57,La,8.1761915,6.45,148.935351259,9.6841595,22.8777902,-2.5904126,10.819452499999999,-20.5979418,2.1071855999999998,5.5824967,9.9639804,15.8444839,10.7549221,9.5104032,0.7368619
91,58,Ce,8.2142294,4.3694525,148.9284269,10.798654899999999,20.9838271,-1.5786535,7.705614300000001,-16.4139804,-2.2057862,4.3428144,11.2501497,10.465977500000001,10.7192836,7.4153084,3.8427502000000002
90,59,Pr,8.238304,3.3361617000000003,148.9237361,11.737916100000001,18.9389181,-0.6289635,5.0250314,-15.6196023,-1.7026253999999998,6.5752387,7.9299199,5.4019437,11.6853357,9.450550600000001,3.8282028
89,60,Nd,8.2554437,1.6888697,148.920154583,12.3713765,16.9395752,0.26660789999999995,2.7603632,-11.2660816,-5.5809762,5.0387870999999995,9.1290534,0.7516383,11.7793653,7.1620067,6.8967358
88,61,Pm,8.2615277,1.0714936,148.918341507,13.1650566,15.198253500000002,1.13667,0.37691230000000003,-10.8179231,-4.799656,7.2698459,5.9453098,-4.5757650000000005,12.793196900000002,9.725567,6.255484000000001
87,62,Sm,8.263468300000001,-0.6945812,148.917191211,14.0124863,13.5670458,1.8711905,-2.0087249,-7.016803299999999,-8.909734,5.8711496,7.5589924,-9.441907800000001,12.616893000000001,7.1825175,9.436420400000001
86,63,Eu,8.253556000000001,-1.3141437,148.917936875,15.0393418,11.977274900000001,2.4012735,-4.9526773,-6.864411199999999,-8.2432158,8.2151528,4.3942213,-14.7954632,13.5355381,9.419098700000001,8.659445700000001
85,64,Gd,8.2394856,-3.6385336,148.919347666,15.912881299999999,10.4390674,3.0993183,-7.4331829,-3.0800776,-12.6615444,6.929072100000001,6.1186620000000005,-21.3855523,13.128245100000001,6.8544851,11.515589400000001
84,65,Tb,8.2098153,-3.7946493,148.923253792,16.8886021,8.5219705,4.0779687,-9.8427859,-2.4801284999999997,-11.700560900000001,9.0230108,2.5081915,-27.548000000000002,14.5790954,9.4612389,11.2753657
83,66,Dy,8.179097200000001,-6.0481366,148.927327516,19.640579300000002,6.9150044,2.8077196,-13.9523694,1.2864578,-17.774142,7.9059116000000005,4.4460145,-34.364,13.7594904,4.9337091,14.038235199999999
82,67,Ho,8.133255,-7.9042328,148.933820457,22.0313887,5.481122099999999,2.3289233,-17.705000000000002,1.6021222000000002,-18.2381747,11.7260054,1.075428,,13.2610005,5.7731292000000005,11.7641927
81,68,Er,8.0749558,-9.801,148.942306,23.2764428,4.1235159,2.0760708,-20.412,6.8288048,-23.047904900000002,10.3339419,3.0394256,,12.726287200000002,2.3606613000000003,14.459709000000002
80,69,Tm,8.004,-10.611,148.952828,24.109,2.761,2.755,,6.7620000000000005,-21.782,13.247,-0.25,,13.378,5.246,12.944
79,70,Yb,7.9270000000000005,,148.964219,,1.3,3.485,,10.86,,11.171,1.854,,13.355,2.59,16.639
95,55,Cs,8.039,11.72,149.959023,7.402,,-5.055,18.141000000000002,,6.589,2.942,12.459,30.131,11.191,9.094,-1.323
94,56,Ba,8.1118405,6.4213477,149.9464411,8.4875244,25.818,-4.3597649,14.9570632,-24.179000000000002,2.258803,5.130497999999999,13.879,23.7901517,7.7319573,6.8943282,-1.844
93,57,La,8.1494339,8.5357155,149.9395475,9.7450415,23.9781395,-3.4256828,11.9893617,-20.301000000000002,2.2874553,4.162544700000001,10.7694988,17.2861884,11.944571,8.8169436,1.2553275000000002
92,58,Ce,8.201122999999999,3.4536462,149.930384032,10.5910746,21.8798937,-2.4055101,8.833088400000001,-19.3052143,-1.8788077,6.2482602,11.9159132,12.2044729,8.5726862,6.695589600000001,1.0635751
91,59,Pr,8.2189316,5.379442200000001,149.926676391,11.9076926,20.169709200000003,-1.5042511,5.2968266,-15.3695595,-1.9962922,5.332454,8.9195595,6.4918605,12.8087223,8.577448,4.0242904
90,60,Nd,8.249578900000001,-0.0826155,149.920901322,12.414521500000001,17.8594691,-0.4789986,3.3713845,-14.299001700000002,-5.6868647,7.375734400000001,9.929549100000001,2.0840998,9.566308300000001,6.6281971,3.9803528000000004
89,61,Pm,8.2438125,3.454,149.920990014,12.8740951,15.6398253,0.6512348,1.1950338,-9.8469336,-4.532755600000001,5.6042492,6.5107719,-2.4915468,14.521537200000001,9.413514,7.4931597000000005
88,62,Sm,8.2616235,-2.2589661999999997,149.917281993,13.8579052,14.221212,1.4496648,-1.2872847,-9.9647719,-8.6813369,7.9867556,8.2759022,-7.7417175,10.525348099999999,6.8547036,6.741861
87,63,Eu,8.2413481,0.9716815000000001,149.919707092,14.6375235,12.5044349,2.237075,-3.6865807,-6.016935999999999,-7.7365144,6.4223707,4.9454425,-12.8464777,15.2545041,9.3377336,9.8960167
86,64,Gd,8.2426103,-4.6582621,149.918663949,15.637268,11.0059266,2.8073935000000003,-6.454432799999999,-5.917124,-12.3467295,8.708195900000002,6.6117052,-17.932728100000002,11.2442382,6.6446154,9.1483991
85,65,Tb,8.2063396,-1.7961707,149.923664799,16.7114781,9.386248799999999,3.5868983,-9.1598971,-1.9534431,-11.4831167,7.6884674,3.2675868,-24.615000000000002,15.8744373,9.115194299999999,12.0852245
84,66,Dy,8.189149500000001,-7.3637264,149.925593068,17.5928576,7.6181411,4.3512892,-11.4782953,-1.4714161,-15.7350826,9.686946,5.1099497000000005,-30.479,11.9381357,6.2971106,11.693712
83,67,Ho,8.1348423,-4.1145689,149.933498353,20.0973616,5.9868871,3.3928365,-15.455,2.2537767,-16.275589,8.371356200000001,1.5408726,-37.175000000000004,16.624311900000002,7.1142105,14.443184
82,68,Er,8.1021962,-11.34,149.937915524,22.494962100000002,4.5498683,2.2986889,-19.001,2.5736963,-21.962,12.1610201,3.4744403000000004,,10.8706505,2.7898332999999997,12.0111264
81,69,Tm,8.021,-7.6610000000000005,149.95009,23.868000000000002,3.078,2.322,-21.72,7.8660000000000005,-21.232,10.622,0.038,,15.699,4.981,14.913
80,70,Yb,7.965,-14.059000000000001,149.958314,24.743000000000002,1.929,3.067,,7.622,,13.572000000000001,2.179,,10.646,2.008,13.424
79,71,Lu,7.8660000000000005,,149.973407,,0.584,3.859,,11.88,,,-1.2695999,,16.169,,16.85
96,55,Cs,8.013,10.66,150.963199,7.123,,-5.5040000000000004,19.03,,7.539000000000001,4.181,12.579,32.5,9.431000000000001,9.234,
95,56,Ba,8.079,8.370000000000001,150.951755,8.252,26.518,-4.965,16.285,-23.239,3.3000000000000003,3.121,14.059000000000001,26.003,9.07,6.835,-0.644
94,57,La,8.1290436,7.9147191,150.942769,9.2330546,24.589000000000002,-3.8151823,13.4693424,-22.429000000000002,3.4652057,5.0705098,10.7095106,20.0759211,10.2310876,9.0986274,-0.752987
93,58,Ce,8.1762779,5.5546233,150.9342722,10.697773600000001,22.972380700000002,-3.3859383,9.7181253,-18.6242296,-0.9958672000000001,4.4495134,12.202881900000001,13.3514218,9.7056695,6.347739,1.9662553
92,59,Pr,8.2078824,4.1635021,150.928309066,11.882944400000001,21.1377029,-2.5262001,6.6065788,-17.7575052,-1.1710482,6.5504904,9.2217897,7.8734168,10.6010462,8.4827981,1.5754627
91,60,Nd,8.2302741,2.4430767,150.923839363,12.7102847,18.851205000000004,-1.3541975,3.6332965,-13.385291800000001,-5.4171659,5.3345503,9.9316455,3.2457368,10.8069967,6.4563242,5.101643
90,61,Pm,8.2412723,1.1902198000000002,150.921216613,13.4644918,16.9248292,-0.3670829,1.266838,-12.3747222,-4.4062426,7.860242599999999,6.99528,-1.7627195,11.7000817,8.885860800000001,4.7955945
89,62,Sm,8.243973500000001,0.0766182,150.919938859,13.583218,14.7788872,1.1453986,-0.3875596,-8.1854998,-7.8554285,5.596462300000001,8.2681153,-5.824091800000001,12.198731599999999,7.153452000000001,8.477988100000001
88,63,Eu,8.239299800000001,-0.46417790000000003,150.919856606,14.3544175,13.1666358,1.96397,-3.0295575,-8.3447336,-6.9603652,7.9320467,4.8907336,-11.0303521,13.1936069,9.547023600000001,7.8591808
87,64,Gd,8.231044599999999,-2.5653796000000004,150.920354922,15.2043833,11.6309643,2.6522117,-5.436532100000001,-4.4265557,-11.1544495,6.4961874,6.685521800000001,-15.922630100000001,12.963203600000002,6.972617100000001,10.793548500000002
86,65,Tb,8.2088743,-2.8711525,150.92310897,16.2775372,9.760166,3.4961546,-8.0007946,-4.1201422,-10.3852406,8.5890699,3.1484607000000002,-20.8519273,14.214439500000001,9.5099337,10.3203437
85,66,Dy,8.1846789,-5.1296421,150.926191279,17.201034,8.2031571,4.179623899999999,-10.4860979,-0.2773082,-14.8778144,7.514088,4.9355704,-27.2100363,13.4470584,6.648613900000001,13.1634332
84,67,Ho,8.145526700000001,-5.3564558,150.931698176,18.119528600000002,6.7120486,4.6950117,-12.8511327,0.1940718,-13.8627412,9.7481723,1.6020988999999999,-33.322,14.7820512,9.1007058,12.560602999999999
83,68,Er,8.1048723,-7.494676800000001,150.937448567,20.667305499999998,5.150242100000001,3.504841,-16.7239383,3.7543569000000003,-19.847,8.506285400000001,3.6093694999999997,,14.0903704,4.5889313000000005,15.2395087
82,69,Tm,8.0500576,-9.229261500000002,150.945494433,22.974,3.7037019,2.5605718000000004,-20.471,3.8853073,-20.013,12.352,0.22926159999999998,,13.6808145,5.5714388,12.865955099999999
81,70,Yb,7.9837556,-11.242,150.955402453,24.355,2.3786732,2.6405464000000003,,8.9999999,-24.842,10.783,2.34,,13.109,2.0867373,15.5830473
80,71,Lu,7.904,,150.967471,,0.9380000000000001,3.249,,8.902000000000001,,13.6,-1.2409653,,13.74,4.7940000000000005,14.111
97,55,Cs,7.98,12.48,151.968728,7.102,,,20.16,,7.739,2.9210000000000003,,34.628,10.571,8.734,
96,56,Ba,8.057,7.68,151.95533,7.863,27.198,-5.385,17.371,,3.629,4.741,14.619,28.54,7.271,6.554,-2.963
95,57,La,8.102,9.69,151.947085,9.121,25.698,-4.804,14.468,-22.299,3.864,4.051,11.639000000000001,21.964000000000002,11.311,8.405,-0.34400000000000003
94,58,Ce,8.161,4.7780000000000005,151.936682,10.276,23.668,-3.86,11.169,-21.329,-0.272,5.827,12.959,15.783,8.042,6.104,-0.503
93,59,Pr,8.1871049,6.3915934,151.9315529,11.600197099999999,22.0248649,-3.474244,7.4963984,-17.7367021,-0.8862046,5.0497067,9.821983000000001,9.1304299,11.799599800000001,7.7759058,2.1082528000000003
92,60,Nd,8.224007799999999,1.104805,151.924691242,12.6123483,19.8807427,-2.176155,4.6133139000000005,-16.2135763,-4.8347213,7.277798,10.658953100000002,4.5576402,8.8616526,5.7537649,2.1666594
91,61,Pm,8.2261293,3.5085089,151.923505185,13.7997689,17.5319016,-1.1439318,1.6340315,-11.763758099999999,-4.7493066,5.939526300000001,7.600256000000001,-0.5371648,13.1362898,7.9851216,5.4313069
90,62,Sm,8.2440645,-1.8744774,151.919738646,13.8542778,15.6609682,0.2201726,-0.0556737,-11.1087649,-8.1811972,8.2578154,8.6656882,-4.6450141,9.5451654,6.1654824,5.2589597999999995
89,63,Eu,8.2265854,1.8188037,151.92175098,14.238766600000002,13.869106400000001,1.5524609,-2.1711963,-6.7912108,-6.770897700000001,6.3067198,5.6009911,-9.2838642,14.873642700000001,9.111453299999999,8.8223068
88,64,Gd,8.2334042,-3.99,151.919798414,15.085888800000001,12.2339101,2.2038471,-4.5893405000000005,-7.4197948,-11.155081000000001,8.589701400000001,7.343176499999999,-14.207085300000001,10.7958729,6.5980684,8.0749966
87,65,Tb,8.2020072,-0.5993405,151.924081855,15.7541509,10.5028763,3.1552627,-7.112667900000001,-3.3531765,-10.0362336,7.165081000000001,3.8173544,-18.997025,15.757554400000002,9.2739247,11.3704154
86,66,Dy,8.1929171,-6.513327500000001,151.924725274,16.9509811,8.931854300000001,3.7265401000000002,-9.6177448,-3.218014,-14.5665352,9.436893099999999,5.7833936,-23.8475769,11.698632700000001,6.2347316,10.6556121
85,67,Ho,8.1449193,-3.1044174,151.931717618,17.8013801,7.076789,4.507395300000001,-11.884357099999999,0.7299339,-13.4096636,8.0532077,2.1412186,-30.183,16.4157895,8.9534097,13.530406000000001
84,68,Er,8.119348500000001,-8.779939700000002,151.935050347,18.8115316,5.7685423,4.9342625,-14.2298321,0.9631987000000001,-17.799923,10.3052462,4.1664434,,12.1564805,6.0096905,12.8401741
83,69,Tm,8.0564387,-5.4498923,151.944476,21.372,4.352329,3.8459718,-18.298000000000002,4.6134964,-18.2492448,9.0199833,0.7429595000000001,,16.8218513,6.8853974,15.5719772
82,70,Yb,8.0154371,-12.848,151.950326699,23.583000000000002,3.0170055000000002,2.7836948,,4.7069329,-24.041,12.7993524,2.787744,,10.931000000000001,2.5340000000000003,13.1176367