N,Z,element,be_per_a,beta_decay_energy,atomic_mass,s2n,s2p,qa,q2b,qep,qbn,s1n,s1p,q4b,qda,qpa,qna
160,108,Hs,7.297,-6.183,268.132011,14.315,5.227,9.76,-10.68,-0.128,-12.894,7.761,3.086,,15.575000000000001,11.437,15.82
159,109,Mt,7.271,-4.497,268.138649,14.665000000000001,3.531,10.768,,3.097,-12.8,6.711,0.796,,18.722,13.115,18.402
158,110,Ds,7.252,,268.143477,,2.07,11.66,,3.702,,8.303,1.432,,16.686,11.888,18.394000000000002
164,105,Db,7.323,-0.544,269.127911,11.008000000000001,,8.49,-2.329,,-5.723,5.9830000000000005,3.616,-10.152000000000001,16.415,13.876,13.133000000000001
163,106,Sg,7.3180000000000005,-1.7850000000000001,269.128495,12.257,8.33,8.5774408,-4.801,-3.072,-9.086,5.179,4.656,-15.142,16.389,11.816,15.203000000000001
162,107,Bh,7.309,-3.016,269.130411,13.43,7.115,8.67,-7.823,-2.871,-9.562,7.301,2.611,,16.382,12.724,14.383000000000001
161,108,Hs,7.2940000000000005,-4.807,269.133649,14.307,5.891,9.274000000000001,-10.341000000000001,0.405,-12.729000000000001,6.546,3.5020000000000002,,16.439,11.253,16.522000000000002
160,109,Mt,7.274,-5.535,269.138809,14.634,4.043,10.48,,1.304,-12.419,7.922000000000001,0.9570000000000001,,17.353,13.024000000000001,16.842
159,110,Ds,7.2501551,,269.144750965,15.188,2.4010000000000002,11.5095104,,4.578,,6.885,1.605,,17.755,12.0260449,19.3413985
165,105,Db,7.314,0.966,270.131399,10.805,,8.31,-1.833,,-5.367,4.823,,-8.312,17.632,13.817,
164,106,Sg,7.314,-2.799,270.130362,11.511000000000001,8.622,8.870000000000001,-3.681,,-8.117,6.333,5.006,-13.251,15.082,12.281,13.633000000000001
163,107,Bh,7.301,-0.882,270.133366,12.620000000000001,7.408,9.064499900000001,-6.479,-2.208,-8.335,5.319,2.7520000000000002,,18.141000000000002,13.287,15.862
162,108,Hs,7.295,-5.597,270.134313,13.998000000000001,6.265000000000001,9.069897800000001,-9.57,-1.869,-12.259,7.453,3.654,,15.116,11.211,14.952
161,109,Mt,7.271,-3.973,270.140322,14.584,4.5760000000000005,10.18,,1.943,-12.197000000000001,6.662,1.073,,18.452,12.916,17.591
160,110,Ds,7.2537633999999995,,270.14458662,15.109,2.864,11.1169933,,2.899,,8.2244052,1.907,,16.242,11.755,17.67
165,106,Sg,7.305,-1.242,271.133782,11.218,,8.748,-3.074,,-7.684,4.885,5.069,-11.335,16.18,12.422,14.788
164,107,Bh,7.298,-1.832,271.135115,11.761000000000001,7.867,9.4199999,-5.2410000000000005,-3.827,-7.325,6.442,2.861,,16.877,13.923,14.446
163,108,Hs,7.288,-3.4090000000000003,271.137082,12.945,6.579,9.46,-8.261000000000001,-1.029,-11.089,5.492,3.8280000000000003,,16.925,11.848,16.538
162,109,Mt,7.273000000000001,-4.853,271.140741,14.343,4.955,9.91,,-0.419,-11.653,7.681,1.301,,17.317,12.996,16.04
161,110,Ds,7.252,,271.145951,15.025,3.119,10.8699743,,3.551,,6.8,2.0460000000000003,,17.363,11.666,18.631
166,106,Sg,7.301,-2.267,272.135825,11.053,,8.620000000000001,-2.484,,-7.41,6.168,,-9.562,14.834,12.236,
165,107,Bh,7.29,-0.217,272.138259,11.585,8.188,9.302999900000001,-4.694,,-6.9750000000000005,5.143,3.119,-13.986,18.067,13.959,15.286
164,108,Hs,7.2860000000000005,-4.477,272.138492,12.25,7.005,9.78,-7.078,-2.902,-10.167,6.758,4.143,,15.486,12.391,14.959
163,109,Mt,7.267,-2.601,272.143298,13.370000000000001,5.3260000000000005,10.35,-9.292,0.334,-10.542,5.69,1.498,,19.080000000000002,13.852,17.651
162,110,Ds,7.255,-6.69,272.146091,14.742,3.607,10.69,,1.103,,7.941,2.306,,16.085,11.647,17.236
161,111,Rg,7.227,,272.153273,,2.5140000000000002,11.1974272,,4.384,,,0.468,,18.802,12.802,19.12
167,106,Sg,7.292,-0.763,273.139475,10.84,,,-1.847,,-6.939,4.672,,-8.365,,12.387,
166,107,Bh,7.2860000000000005,-1.084,273.140294,11.318,,9.11,-4.099,,-6.393,6.176,3.126,-12.202,16.777,14.116,13.933
165,108,Hs,7.279,-3.015,273.141458,12.066,7.428,9.649999900000001,-6.518,-2.0420000000000003,-9.786,5.309,4.309,,16.619,12.402000000000001,15.983
164,109,Mt,7.265000000000001,-3.503,273.144695,12.46,5.655,10.88,-8.103,-1.294,-9.372,6.771,1.5110000000000001,,17.802,14.534,16.199
163,110,Ds,7.25,-4.6000000000000005,273.148455,13.81,3.984,11.3668999,,1.992,-12.559000000000001,5.869,2.485,,17.896,12.44,18.819
162,111,Rg,7.23,,273.153393,,2.793,11.16,,2.114,,7.96,0.487,,17.643,13.067,17.822
167,107,Bh,7.2780000000000005,0.356,274.143599,11.168000000000001,,8.9399999,-3.487,,-6.077,4.993,3.447,-10.85,17.952,14.009,
166,108,Hs,7.276,-3.843,274.143217,11.741,7.692,9.55,-5.791,-3.803,-9.447000000000001,6.433,4.566,,15.329,12.411,14.435
165,109,Mt,7.259,-1.948,274.147343,12.375,6.1160000000000005,10.595,-7.362,-0.723,-9.107,5.604,1.807,,18.956,14.422,17.037
164,110,Ds,7.2490000000000006,-5.415,274.149434,13.028,4.385,11.66,,0.14100000000000001,-11.759,7.159,2.874,,16.426000000000002,12.961,17.152
163,111,Rg,7.227,,274.155247,14.304,3.448,11.4778999,,2.541,,6.344,0.962,,19.240000000000002,13.523,19.158
168,107,Bh,7.273000000000001,-0.712,275.145766,11.046,,,-2.986,,-5.697,6.053,,-9.614,16.571,14.124,
167,108,Hs,7.268,-2.275,275.14653,11.418000000000001,8.006,9.449999900000002,-5.174,,-8.829,4.985,4.559,,16.52,12.569,15.618
166,109,Mt,7.257000000000001,-2.899,275.148972,12.158,6.495,10.4826999,-6.628,-2.2840000000000003,-8.502,6.554,1.928,,17.71,14.626,15.625
165,110,Ds,7.243,-3.729,275.152085,12.762,4.679,11.55,,0.971,-11.017,5.602,2.872,,17.595,13.048,18.308
164,111,Rg,7.227,,275.156088,13.633000000000001,3.9650000000000003,11.870000000000001,,0.856,,7.288,1.091,,17.82,14.176,17.56
168,108,Hs,7.265000000000001,-3.1270000000000002,276.148348,11.363,,9.24,-4.354,,-8.652000000000001,6.378,4.884,-12.175,15.134,12.366,13.912
167,109,Mt,7.25,-1.227,276.151705,12.08,7.0280000000000005,10.0999999,-6.074,-1.7570000000000001,-8.425,5.525,2.469,,18.617,14.409,16.276
166,110,Ds,7.243,-4.847,276.153022,12.8,5.445,11.11,-7.821,-1.242,-10.927,7.198,3.516,,16.001,12.621,16.419
165,111,Rg,7.223,-2.974,276.158226,13.368,4.441,11.48,,1.331,,6.08,1.568,,18.900000000000002,13.965,18.251
164,112,Cn,7.2090000000000005,,276.161418,,3.415,11.852,,1.405,,,2.324,,16.459,12.339,17.721
169,108,Hs,7.256,-1.633,277.151772,11.26,,9.03,-3.717,,-8.009,4.882,4.864,-10.957,16.306,12.477,
168,109,Mt,7.247,-2.084,277.153525,11.901,7.3500000000000005,9.9,-5.399,-3.231,-7.603,6.376,2.466,,17.227,14.466000000000001,14.893
167,110,Ds,7.237,-3.315,277.155763,12.716000000000001,5.978,10.9,-7.24,-0.382,-10.366,5.519,3.509,,17.036,12.707,17.333000000000002
166,111,Rg,7.222,-3.9250000000000003,277.159322,13.13,4.937,11.200000000000001,,-0.194,-10.024000000000001,7.051,1.421,,17.452,14.074,16.804000000000002
165,112,Cn,7.205,,277.163535,,3.912,11.6221999,,2.504,,6.099,2.343,,17.648,12.585,18.782
169,109,Mt,7.24,-0.484,278.156487,11.688,7.761,9.5799999,-4.7540000000000004,-2.622,-7.397,5.313,2.8970000000000002,-13.263,18.292,14.139000000000001,15.633000000000001
168,110,Ds,7.236,-4.2700000000000005,278.157007,12.431000000000001,6.5120000000000005,10.42,-6.591,-2.4130000000000003,-10.227,6.913,4.046,,15.649000000000001,12.348,15.405000000000001
167,111,Rg,7.218,-2.321,278.16159,13.008000000000001,5.37,10.8462999,-8.509,0.223,-9.883000000000001,5.958,1.861,,18.692,13.719,17.400000000000002
166,112,Cn,7.206,-6.188,278.164083,13.661,4.275,11.22,,0.461,,7.562,2.854,,16.166,12.311,16.822
165,113,Nh,7.181,,278.170725,,2.935,11.9927999,,3.334,,,0.592,,19.38,,19.281
170,109,Mt,7.237,-1.439,279.158439,11.566,8.093,9.38,-4.136,-4.074,-6.737,6.253,2.924,-11.875,16.921,14.264000000000001,14.281
169,110,Ds,7.229,-2.697,279.159984,12.211,6.929,10.107000000000001,-5.997,-1.485,-9.568,5.298,4.032,,16.727,12.576,16.485
168,111,Rg,7.216,-3.299,279.16288,12.828,5.865,10.529999900000002,-7.738,-1.334,-9.192,6.87,1.818,,17.34,14.046000000000001,16.055
167,112,Cn,7.202,-4.439,279.166422,13.454,4.649,10.93,,1.481,-12.08,5.892,2.789,,17.325,12.498000000000001,18.128
166,113,Nh,7.183,,279.171187,,3.525,11.64,,1.6500000000000001,,7.641,0.671,,17.838,13.964,17.72
170,110,Ds,7.227,-3.5660000000000003,280.161375,12.073,7.478,9.71,-5.3340000000000005,-3.468,-9.472,6.775,4.554,,15.264000000000001,12.176,14.592
169,111,Rg,7.212,-1.768,280.165204,12.777000000000001,6.4590000000000005,10.1487999,-7.354,-0.988,-9.206,5.907,2.427,,18.346,13.658,16.524
168,112,Cn,7.202,-5.585,280.167102,13.33,5.175,10.69,,-0.659,-11.877,7.438,3.356,,15.845,12.111,16.209
167,113,Nh,7.18,,280.173098,13.932,3.859,11.428,,2.229,,6.291,1.07,,19.109,13.772,18.479
171,110,Ds,7.22,-2.06,281.164545,11.894,7.805000000000001,9.473,-4.674,-2.436,-8.684000000000001,5.119,4.526,,16.399,12.370000000000001,15.699
170,111,Rg,7.2090000000000005,-2.614,281.166757,12.531,6.83,9.9,-6.477,-2.466,-8.393,6.6240000000000006,2.2760000000000002,,17.02,13.946,15.213000000000001
169,112,Cn,7.197,-3.863,281.169563,13.216000000000001,5.655,10.4299999,,0.338,-11.364,5.779,3.228,,16.936,12.291,17.343
168,113,Nh,7.181,,281.17371,13.792,4.49,10.978,,0.635,,7.501,1.133,,17.5,13.832,16.936
171,111,Rg,7.204,-1.084,282.169343,12.287,7.346,9.55,-5.987,-1.947,-8.277000000000001,5.663,2.82,,18.132,13.582,15.803
170,112,Cn,7.197,-4.9030000000000005,282.170507,12.971,6.072,10.15,,-1.736,-11.055,7.1930000000000005,3.7960000000000003,,15.651,11.968,15.448
169,113,Nh,7.1770000000000005,,282.17577,13.654,4.735,10.7831999,,1.107,,6.1530000000000005,1.5070000000000001,,18.785,13.572000000000001,17.654
172,111,Rg,7.2010000000000005,-1.957,283.171101,12.096,7.598,9.370000000000001,-5.183,-3.364,-7.517,6.433,2.699,,16.818,13.924,14.517
171,112,Cn,7.192,-3.226,283.173202,12.753,6.514,9.888,,-0.742,-10.463000000000001,5.5600000000000005,3.694,,16.715,12.315,16.663
170,113,Nh,7.1770000000000005,,283.176666,13.389000000000001,5.348,10.417,,-0.468,,7.237,1.552,,17.327,13.773,16.324
172,112,Cn,7.191,-4.176,284.17436,12.553,6.953,9.67,-6.364,-2.703,-10.219,6.993,4.2540000000000004,,15.384,11.946,14.789
171,113,Nh,7.173,-2.188,284.178843,13.280000000000001,5.729,10.280002699999999,,-0.078,,6.0440000000000005,2.035,,18.476,13.508000000000001,16.904
170,114,Fl,7.163,,284.181192,,4.625,10.700000000000001,,0.153,,,3.073,,15.761000000000001,11.833,16.479
173,112,Cn,7.1850000000000005,-2.682,285.177227,12.393,7.321,9.388,-5.846,-1.6620000000000001,-9.576,5.4,4.173,,16.417,12.209,15.943
172,113,Nh,7.172,-3.164,285.180106,12.938,6.19,10.0099999,,-1.491,-9.083,6.894,1.936,,17.142,13.806000000000001,15.673
171,114,Fl,7.159,,285.183503,,4.9830000000000005,10.559999900000001,,1.228,,5.9190000000000005,2.948,,17.080000000000002,12.067,17.753
173,113,Nh,7.168,-1.649,286.182456,12.777000000000001,6.591,9.789999900000002,,-1.062,-9.047,5.883,2.419,,18.252,13.484,16.223
172,114,Fl,7.159,,286.184226,13.316,5.3870000000000005,10.3550663,,-0.769,,7.398000000000001,3.451,,15.726,11.907,15.915000000000001
174,113,Nh,7.166,-2.474,287.184064,12.456,6.853,9.65,-6.293,-2.344,-8.222,6.573,2.2840000000000003,,17.079,13.904,15.131
173,114,Fl,7.155,-3.819,287.18672,13.146,5.736,10.166799900000001,,0.19,,5.748,3.317,,16.872,12.202,17.16
172,115,Mc,7.139,,287.19082,,4.598,10.7599999,,0.502,,,1.147,,17.527,13.833,16.804000000000002
174,114,Fl,7.154,-4.749,288.187781,12.832,6.111,10.0764873,,-1.742,-10.903,7.083,3.827,,15.671000000000001,12.013,15.477
173,115,Mc,7.135,,288.192879,,4.869,10.649999900000001,,0.922,,6.154,1.552,,18.771,13.598,17.544
175,114,Fl,7.149,-3.217,289.190517,12.606,6.482,9.9541798,-6.992,-0.754,-10.272,5.523,3.793,,16.721,12.373000000000001,16.662
174,115,Mc,7.135,-3.774,289.193971,13.208,5.3500000000000005,10.4899999,,-0.5760000000000001,,7.054,1.5230000000000001,,17.465,13.941,16.373
173,116,Lv,7.119,,289.198023,,4.05,11.1,,2.251,,,2.498,,17.42,,18.498
175,115,Mc,7.131,-2.236,290.196235,13.017,5.756,10.4099999,,-0.048,-9.737,5.963,1.963,,18.586000000000002,13.727,16.983
174,116,Lv,7.12,,290.198635,,4.4670000000000005,10.9968334,,0.273,,7.501,2.944,,16.072,12.143,16.745
176,115,Mc,7.1290000000000004,-3.064,291.197725,12.646,5.948,10.3,-7.473,-1.424,-8.919,6.683,1.84,,17.425,14.127,15.857000000000001
175,116,Lv,7.1160000000000005,-4.409,291.201014,13.356,4.8,10.889999900000001,,1.224,,5.855,2.837,,17.272000000000002,12.442,17.973
174,117,Ts,7.098,,291.205748,,3.608,11.48,,1.572,,,0.663,,17.907,,17.634
176,116,Lv,7.1160000000000005,-5.488,292.201969,13.037,5.176,10.7911897,,-0.656,-11.592,7.182,3.336,,16.052,12.314,16.314
175,117,Ts,7.095,,292.207861,,3.749,11.53,,2.152,,6.104,0.912,,19.304000000000002,14.028,18.584
177,116,Lv,7.111,-3.86,293.204583,12.819,5.51,10.677327100000001,-8.234,,-11.125,5.636,3.321,,17.099,12.64,17.483
176,117,Ts,7.095,-4.374,293.208727,13.368,4.33,11.319999900000001,,0.539,,7.264,0.994,,17.895,14.264000000000001,17.283
175,118,Og,7.078,,293.213423,,3.02,11.92,,3.38,,,2.108,,17.86,,19.421
177,117,Ts,7.0920000000000005,-2.923,294.21084,13.367,4.781,11.1799999,,,-10.477,6.103,1.46,,18.975,14.017,17.863
176,118,Og,7.079,,294.213979,,3.391,11.8673266,,1.463,,7.553,2.3970000000000002,,16.41,12.531,17.723
177,118,Og,7.0760000000000005,,295.216178,13.576,3.777,11.700000000000001,,,,6.023,2.317,,17.652,12.612,18.882