N,Z,element,be_per_a,beta_decay_energy,atomic_mass,s2n,s2p,qa,q2b,qep,qbn,s1n,s1p,q4b,qda,qpa,qna
47,42,Mo,8.5449851,-7.6200874999999995,88.919468149,24.272763100000002,10.2457397,-4.2646638999999995,-16.6455202,1.3249587,-21.4159607,10.3997092,6.1323601,,9.5703558,-1.0168282,8.6004815
46,43,Tc,8.450575800000001,-9.0254327,88.927648649,25.847441200000002,8.0983058,-3.5400884,-21.744,1.4877274,-21.127,13.7958732,1.9972747,,10.200767599999999,1.5801257000000002,7.385606300000001
45,44,Ru,8.340376000000001,-12.719,88.937337849,28.782,6.0625488999999995,-3.2845795,,7.028158,-29.581,12.101,3.9880935,,10.0314346,-1.935,11.3879053
44,45,Rh,8.189,,88.950992,,2.539,-2.226,,8.731,,16.862000000000002,-1.4000000000000001,,10.790000000000001,-1.016,11.566
58,32,Ge,8.109,12.52,89.969436,5.093,,-10.834,27.330000000000002,,9.988,3.501,,46.489000000000004,4.631,5.264,
57,33,As,8.24,14.81,89.955995,6.683,33.178,-9.655,23.01,,9.931000000000001,2.532,15.239,38.375,9.24,7.464,-6.474
56,34,Se,8.3957672,8.2000834,89.940096,8.0586556,30.859,-8.8252118,19.1590367,-30.049,4.4027306,4.8791424,16.559,30.1507221,5.36,4.681746,-6.564
55,35,Br,8.4781865,10.9589533,89.931292848,9.426975,28.129,-7.463072400000001,15.365266700000001,-24.759,4.4641704,3.7973528,12.2968788,22.4966062,10.594704100000001,7.2898818,-2.7359904000000004
54,36,Kr,8.591259899999999,4.4063133,89.919527929,11.4106001,25.6529984,-6.8810001000000005,10.9916854,-23.2558321,-1.3181787999999999,6.494783000000001,13.9739591,13.813287800000001,6.4675148,3.7964811,-2.8867244999999997
53,37,Rb,8.6315262,6.5853721,89.914797557,12.8992044,23.2275477,-6.1582273999999995,7.1313395,-18.3802725,-1.2278643999999999,5.724492100000001,10.1187493,3.295958,11.036529699999999,6.2080133,0.17251480000000002
52,38,Sr,8.6960043,0.5459674,89.90772787,14.1719522,20.8375915,-5.1101848,2.8216024,-16.704121400000002,-6.3110607000000005,7.8132364,11.5275172,-5.7784306,7.3688667,3.5109119,0.4049882
51,39,Y,8.6933778,2.2756350000000003,89.907141749,18.3405196,18.465849900000002,-6.1748256,-3.8353815,-12.073484700000002,-9.690256600000001,6.8570282,7.5768569,-15.7722161,12.1355235,3.2472193000000003,3.7472914
50,40,Zr,8.7099699,-6.1110165,89.904698755,21.286309600000003,15.4288606,-6.674363400000001,-8.600033,-9.8524919,-16.2181107,11.9658916,8.3503161,-23.888746200000003,6.2372885,-0.890105,1.7539314
49,41,Nb,8.633377000000001,-2.4890165000000004,89.911259201,22.6326118,12.9404441,-5.803346899999999,-11.936834600000001,-2.2392996,-15.7179047,10.1070942,5.0725281,-31.028000000000002,11.678150100000002,1.549671,6.0032585
48,42,Mo,8.5970285,-9.447818100000001,89.91393127,23.6285974,11.1215826,-4.628406699999999,-15.2887132,-2.5835116,-20.8489757,13.2288882,6.8357307,-40.463,6.7098477999999995,-1.4339662000000002,4.8210345
47,43,Tc,8.483360000000001,-5.8408951,89.924073919,25.1970308,9.131083199999999,-4.0155513,-19.091,2.6120874,-20.4265903,11.401157600000001,2.9987231000000003,,12.6726638,1.0241762,8.7961989
46,44,Ru,8.4097684,-13.25,89.930344378,26.687,6.7751902,-3.1977899,-25.174,2.842172,-27.304000000000002,14.5856952,4.7779155,,7.4973073999999995,-2.3296943000000003,7.6474183
45,45,Rh,8.254,-11.924,89.944569,30.916,4.541,-2.488,,8.472,,14.054,0.553,,13.417,-1.04,11.703
44,46,Pd,8.113,,89.95737,,-0.052000000000000005,-2.364,,11.371,,,1.348,,7.861,,11.667
58,33,As,8.189,14.08,90.960816,6.112,,-10.055,24.608,,11.229000000000001,3.581,15.318,41.245,7.251,7.884,-8.463000000000001
57,34,Se,8.3348382,10.527171599999999,90.9457,7.730367500000001,32.118,-9.415000000000001,20.393844,-29.399,5.3488583,2.8512251,16.879,33.0718198,6.6610000000000005,4.734,-5.414
56,35,Br,8.441924199999999,9.866672399999999,90.934398617,8.9756661,29.155,-7.9143037000000005,16.637747200000003,-27.406,5.780640000000001,5.1783133,12.5960497,25.2440196,8.5959041,7.640957,-5.011
55,36,Kr,8.5417519,6.7710748,90.923806309,10.5808154,26.559517500000002,-6.9727569,12.6779758,-22.4627221,0.32028100000000004,4.086032400000001,14.2626387,16.9216182,8.0111047,4.6060487000000006,-1.4433684
54,37,Rb,8.607562099999999,5.906901,90.916537261,12.175286,24.048719300000002,-6.2782791,8.6062724,-21.0337135,0.1345782,6.4507939,10.0747602,8.892979,9.501553,6.8103021,-1.3826791
53,38,Sr,8.663875899999999,2.6993714,90.910195942,13.5855592,21.6940972,-5.3673346,4.2436424,-15.981661200000001,-5.2263554,5.7723228,11.5753479,-1.4431154,8.7712561,3.8211101,1.6857481
52,39,Y,8.6849421,1.544271,90.907298048,14.7827549,19.2168644,-4.1784353,0.2867066,-14.2747192,-5.6500918,7.9257267,7.6893472,-10.3646636,10.5685125,6.434363,1.9040857000000002
51,40,Zr,8.693314899999999,-1.2575644,90.905640205,19.160254400000003,16.2645077,-5.4404314000000005,-5.6867579,-9.2336182,-13.3053793,7.1943628,8.6876508,-19.655759300000003,10.526417200000001,1.267492,5.672439000000001
50,41,Nb,8.670898300000001,-4.4291934,90.906990256,22.154909,13.5047675,-6.0445564,-10.651370199999999,-7.4300864,-14.536831399999999,12.047814899999999,5.1544514,-28.068,8.9507532,1.8549014,3.3074034
49,42,Mo,8.6136286,-6.222176800000001,90.91174519,23.3365262,11.9088025,-5.2866035,-13.9690014,-0.7252579,-19.555456,10.1076379,6.836274400000001,-36.039,9.1277275,-1.1732239,7.0664419
48,43,Tc,8.5366558,-7.7468246,90.918424972,24.734436900000002,9.938844800000002,-4.5370802999999995,-17.417,-0.6140977000000001,-19.1741743,13.333279200000002,3.1031142000000003,,9.739093800000001,1.5639508000000002,5.8312999
47,44,Ru,8.442928700000001,-9.67,90.92674153,26.0130449,7.8028307,-3.7799314,-22.07,4.6437105,-24.677,11.4273497,4.8041076,,9.8658309,-1.7054760000000002,10.0931224
46,45,Rh,8.328,-12.4,90.937123,29.062,5.753,-3.3040000000000003,,4.866,-26.931,15.007,0.975,,10.511000000000001,0.634,8.747
45,46,Pd,8.183,,90.950435,,2.378,-2.865,,11.425,,14.531,1.825,,10.192,-4.445,13.816
59,33,As,8.121,16.344,91.967386,5.532,,-10.414,25.853,,12.129,1.951,,44.393,8.801,7.524,
58,34,Se,8.290000000000001,9.509,91.94984,7.066,32.832,-9.629,22.046,,6.312,4.215,17.513,36.144,4.977,4.67,-8.037
57,35,Br,8.3849123,12.536516100000002,91.939631595,8.3751425,29.82,-8.208,18.5396371,-27.022000000000002,6.669843200000001,3.1968292000000003,12.941653800000001,28.5836819,10.2782173,7.6236411,-4.056
56,36,Kr,8.512675,6.003121,91.926173092,9.9527053,27.547048,-7.3100413,14.0980421,-25.4781699,0.9044019,5.866672899999999,14.9509983,19.6896952,5.9417845,4.3689979999999995,-4.130528
55,37,Rb,8.5694225,8.0949212,91.919728477,11.5495129,25.3500856,-6.4813982,10.044044900000001,-20.9541193,0.8081820000000001,5.098719,11.087446900000002,11.6808408,10.897616900000001,6.6274002,-0.851776
54,38,Sr,8.648907,1.9491237000000001,91.911038222,13.059062,22.4860534,-5.6009911,5.5916531,-19.182368,-4.5873678,7.2867392,12.411293200000001,3.9412164,7.2090091,3.7090832000000002,-0.685174
53,39,Y,8.6615894,3.6425294,91.908945752,14.4622183,20.0288638,-4.632405800000001,1.6367959,-14.3604169,-4.9922205,6.5364915,8.453515900000001,-5.8907914,11.845257400000001,6.2565872,2.5423065
52,40,Zr,8.692678299999999,-2.0057335000000003,91.905035336,15.8291127,17.086021100000004,-2.9623109,-1.6504367,-12.0960453,-9.8923143,8.634749900000001,9.3966739,-14.1578131,8.7486955,4.116233599999999,3.3964049000000003
51,41,Nb,8.662373100000002,0.3552968,91.90718858,19.9343957,14.5343202,-4.5791774,-7.5275873,-7.390940400000001,-12.3157743,7.8865808,5.8466694,-23.4541951,13.030064000000001,3.2887386000000003,6.9043141
50,42,Mo,8.6577312,-7.8828841,91.906807153,22.778709,12.6139819,-5.6046291,-12.5073763,-6.2019662,-18.8932478,12.671071,7.4595306,-32.029491900000004,6.5637507,-1.3187772,3.7157888
49,43,Tc,8.563544,-4.6244922,91.915269777,24.3436429,10.8421144,-5.1790638,-15.9266078,0.4233535,-18.757188300000003,11.010363700000001,4.0058399,-41.396,11.9576183,0.9532963,7.346453800000001
48,44,Ru,8.504774,-11.3021155,91.920234373,25.5600458,8.7066386,-4.0395737,-19.5221155,0.6186522999999999,-23.803,14.132696099999999,5.603524500000001,,7.1342925,-2.042299,6.3601355
47,45,Rh,8.3734211,-8.22,91.932367692,27.508,6.8523412,-3.7537096,-25.469,5.6985911,-24.901,12.501,2.0482336,,12.5955129,0.2343839,10.0421636
46,46,Pd,8.2755695,-17.249,91.941192225,31.212,4.4732363,-2.864,,6.171766400000001,,16.681,3.499,,7.566,-4.264,9.236730900000001
45,47,Ag,8.08,,91.95971,,0.47400000000000003,-3.095,,13.751,,,-1.351,,12.891,,13.767
59,34,Se,8.225,12.030000000000001,92.956135,6.422,,-10.245000000000001,23.276,,7.3020000000000005,2.208,17.769000000000002,39.226,6.3500000000000005,4.994,-6.743
58,35,Br,8.345598599999999,11.245767299999999,92.94322,7.9255699,30.969,-8.785,19.729665,-29.799,7.807775400000001,4.7287407,13.455,31.336920300000003,8.400701699999999,7.7740428,-6.253
57,36,Kr,8.4581085,8.4838977,92.931147172,9.304664800000001,28.1338148,-7.5685199,15.9498411,-24.701,2.5651289999999998,3.4379919,15.192161,22.9860252,7.6821059,4.7283588,-2.6893775
56,37,Rb,8.5409209,7.4659434000000005,92.922039334,11.0174877,26.090541,-6.7705447,11.607255199999999,-23.6760588,2.1761525,5.918768699999999,11.1395426,14.5929398,9.0648806,7.2034145,-2.9731918999999998
55,38,Sr,8.612787500000001,4.1413118,92.914024314,12.5765301,23.689812000000003,-5.9749649,7.036184100000001,-18.6054861,-3.3406672,5.2897909,12.602365100000002,6.721235399999999,8.370012000000001,4.1437843999999995,0.519818
54,39,Y,8.6489054,2.8948723,92.909578434,14.0184706,21.0600489,-4.9396726,2.9856845,-16.7436769,-3.8394496,7.481979000000001,8.6487557,-0.6210393000000001,10.1356012,6.5878446,0.7848196000000001
53,40,Zr,8.6716207,0.0908123,92.906470661,15.3690718,18.0480202,-3.3379171000000003,-0.31494869999999997,-11.543628,-8.7400554,6.7343219,9.5945043,-9.9053044,9.940100300000001,4.2389398,4.4753194
52,41,Nb,8.6641849,-0.4057609,92.90637317,16.7174485,15.4394611,-1.9265536,-3.6067238,-9.6853166,-8.475570900000001,8.8308677,6.0427872,-18.2010304,11.393559100000001,6.4237625,4.930474500000001
51,42,Mo,8.6514095,-3.2009629,92.906808772,20.740881,13.489429099999999,-4.3540211,-9.5903558,-5.6370262,-15.9526941,8.06981,7.6427597,-27.825269400000003,10.5417556,0.718507,7.6118705
50,43,Tc,8.6085782,-6.3893929,92.910245147,23.7620949,11.5460306,-5.4052773,-14.5943065,-4.4417968000000005,-17.3762234,12.7517312,4.0865001,-37.207,9.313525100000001,1.4304534000000002,4.7018169
49,44,Ru,8.5314627,-8.2049136,92.917104442,25.1195266,9.585831200000001,-4.626695,-18.2349136,2.3028928,-22.2889461,10.9868305,5.5799913,,9.4807412,-1.6279718,8.6021932
48,45,Rh,8.4348255,-10.03,92.925912778,26.585,7.6030942999999995,-4.0418688000000005,-22.612000000000002,2.6249224,-22.3040324,14.0840324,1.9995699,,9.9388302,0.7360467,7.359288800000001
47,46,Pd,8.3185637,-12.582,92.936680426,28.955000000000002,5.319919,-3.0373015,,8.0304301,-29.523,12.274032400000001,3.2716854,,10.299,-2.484,11.5483937
46,47,Ag,8.175,,92.950188,,2.408,-3.174,,9.311,,16.941,-1.091,,10.481,-1.826,10.881
60,34,Se,8.18,10.846,93.96049,6.222,,-10.758000000000001,24.544,,8.016,4.015,,42.042,4.287,4.5600000000000005,
59,35,Br,8.287,13.698,93.948846,7.559,31.848,-9.084,20.913,,8.415000000000001,2.831,14.079,34.702,9.785,7.795,-5.5040000000000004
58,36,Kr,8.424331800000001,7.215011400000001,93.934140452,8.7210874,29.202,-7.972473,17.497941100000002,-27.777,3.2008023,5.2830954000000006,15.7465158,25.921551700000002,5.595839700000001,4.6235767,-5.1212479
57,37,Rb,8.4927644,10.2829297,93.926394819,9.932977800000002,26.9079209,-6.987401,13.7886814,-22.961527200000003,3.4517343,4.0142091,11.7157599,17.806271799999998,10.917344400000001,7.2752377,-1.8090877
56,38,Sr,8.5938344,3.5057517,93.915355641,12.1209863,24.6543344,-6.3113773,8.4236106,-21.9986895,-2.6898836000000004,6.8311953999999995,13.514791800000001,9.5683584,6.637535700000001,3.7633829000000003,-2.2253449
55,39,Y,8.622806800000001,4.917858900000001,93.911592062,13.6776143,22.1569652,-5.410815700000001,4.0175904000000005,-17.0205435,-3.300763,6.1956353,9.5546001,1.8068590999999998,11.2267051,6.164532100000001,1.0399781000000001
54,40,Zr,8.666801600000001,-0.9002684000000001,93.906312523,14.9529438,18.979902900000003,-3.7433025,1.1447478000000002,-14.472459,-8.127809599999999,8.2186219,10.3311472,-4.6857293,8.2579699,3.9460446000000005,2.0290203
53,41,Nb,8.648901400000002,2.0450163,93.907279001,16.0584089,16.1305108,-2.2970667,-2.2107313,-9.4308787,-7.6333021,7.2275412,6.536006500000001,-13.461439700000001,12.8007678,6.3905841,5.6286601
52,42,Mo,8.6623341,-4.255747599999999,93.905083586,17.748128400000002,14.532997700000001,-2.0664479,-5.830477200000001,-8.581022800000001,-12.8792813,9.6783184,8.4902105,-22.311798800000002,8.750018,3.0880034000000003,5.1279148
51,43,Tc,8.608737300000001,-1.5747296,93.909652319,21.375264899999998,12.2829835,-3.9217168000000004,-11.2507084,-4.2344629000000005,-15.0129266,8.6235337,4.6402238,-31.756,13.361062400000002,2.9145576,8.126098
50,44,Ru,8.583662,-9.6759789,93.91134286,24.425027600000004,10.3529572,-4.8360038,-16.4813216,-3.0654943,-21.6431107,13.438197,6.2664572,-42.144,7.0529078,-1.7328896,5.2716341
49,45,Rh,8.4724033,-6.805342800000001,93.92173045,26.0511642,8.5598625,-4.607843,-20.505,3.4095217,-21.9971318,11.967131799999999,2.9798712000000003,,12.1043945,0.1962646,8.7254362
48,46,Pd,8.3916832,-13.700000000000001,93.929036286,27.465821499999997,6.379011900000001,-3.6433953000000003,-25.662,3.8254715999999997,-27.774,15.191789000000002,4.379442,,7.6076217,-2.669,7.7839544
47,47,Ag,8.238,-11.962,93.943744,31.015,3.981,-3.193,,9.321,,14.074,0.709,,13.088000000000001,-1.369,11.814
46,48,Cd,8.102,,93.956586,,0.23900000000000002,-3.1550000000000002,,11.253,,,1.329,,7.801,,11.376
61,34,Se,8.112,13.39,94.9673,5.743,,,25.699,,9.118,1.728,,44.657000000000004,,4.784,
60,35,Br,8.245000000000001,12.309000000000001,94.952925,7.102,,-9.775,22.04,,9.426,4.272,14.336,37.358000000000004,7.721,7.738,-7.824
59,36,Kr,8.3659963,9.731386800000001,94.939710922,8.1655541,29.877,-8.0037065,18.958364000000003,-26.645,4.3325528,2.8824586,15.798,29.5010199,7.4421216999999995,4.9379473,-3.789
58,37,Rb,8.460196700000001,9.2269772,94.929263849,9.413043100000001,27.578014200000002,-7.2079217,15.31763,-25.53,4.884095599999999,5.398834,11.831498400000001,20.8959644,8.9565023,7.7430766,-4.0110925
57,38,Sr,8.5490875,6.0906528,94.919358282,11.174076999999999,25.5592241,-6.5682265,10.5426559,-21.0584756,-0.8371299000000001,4.3428816,13.843464200000001,12.594588,8.2134228,4.5192203,-0.7015536
56,39,Y,8.6049644,4.4520031,94.912819697,13.123417900000002,23.1659791,-5.8878045000000006,5.578334300000001,-19.934117,-2.0099237000000003,6.9277826,9.651187400000001,4.8134177000000005,9.588713400000001,6.5234887,-0.7890854
55,40,Zr,8.6435924,1.1263312,94.908040276,14.6805488,20.1520388,-4.4329066,2.0519321,-14.1031905,-7.362195300000001,6.4619268000000005,10.597438700000001,-2.2021816,9.278022100000001,4.0206093,2.8538326
54,41,Nb,8.647213299999999,0.9256009000000001,94.90683111,15.7160677,17.1370583,-2.8598664,-0.7649167,-11.72377,-6.4435103,8.4885265,6.8059111,-8.4456551,11.0465631,6.5368075,3.6766251000000003
53,42,Mo,8.6487212,-1.6905175,94.905837436,17.0474295,15.1677869,-2.2411963,-4.2541136999999996,-7.7315119999999995,-11.6248587,7.3691111000000005,8.6317804,-17.7459595,10.2117746,3.6054731,6.393553600000001
52,43,Tc,8.6226911,-2.5635961000000003,94.907652281,18.557874899999998,13.3864571,-1.8082432,-7.6807384,-6.9412629,-11.5090708,9.9343412,4.8962466000000004,-26.115000000000002,11.4965311,5.6512874,6.0783376
51,44,Ru,8.587470600000001,-5.1171423,94.910404415,22.383671600000003,11.2286219,-3.6738405,-13.4918458,-2.3326505,-18.6214535,8.945474599999999,6.5883981,-36.402,10.8591644,0.3319995,8.997230600000002
50,45,Rh,8.5253707,-8.374703499999999,94.915897893,25.471443,9.3124425,-4.778875,-18.435,-1.4712558,-20.309654,13.5043112,3.0459853,,9.5869138,0.8246495,6.2314887
49,46,Pd,8.4289807,-10.06,94.924888506,27.1267395,7.3271318,-4.1509961,-22.91,5.3287182,-25.635,11.9349504,4.347260599999999,,9.756703700000001,-2.1027625,9.981700000000002
48,47,Ag,8.315,-12.85,94.935688,29.649,5.472,-3.761,,5.713,-27.537,15.575000000000001,1.093,,9.787,-0.263,8.74
47,48,Cd,8.171,,94.949483,,2.652,-3.311,,11.757,,14.687000000000001,1.943,,10.054,-4.662,13.370000000000001
61,35,Br,8.184000000000001,14.872,95.95898,6.703,,-10.255,23.144000000000002,,9.878,2.431,15.039,40.12,9.304,7.514,
60,36,Kr,8.3308721,8.2726693,95.943014473,7.876537900000001,30.856,-8.783,19.836566299999998,-29.911,4.7373075,4.9940793,16.521,32.3571784,5.279,4.6726087,-6.575
59,37,Rb,8.4088963,11.563897,95.934133398,8.9341958,28.283,-7.546454300000001,16.975635,-24.793,5.6916154,3.5353618,12.4844016,24.248479500000002,10.7042359,7.6457067,-2.8177136000000003
58,38,Sr,8.5212041,5.411738000000001,95.921719045,10.2151631,26.1484102,-6.5738352,12.520612100000001,-24.0482986,0.2183712,5.872281500000001,14.3169118,15.8766415,6.355350400000001,4.5657075,-3.1358433
57,39,Y,8.5694269,7.1088741,95.915909305,12.1211494,24.345136800000002,-5.9824522,7.2728444,-19.7286498,-0.7413637,5.1933668,10.501672600000001,7.4916623,11.226542,6.6199128,-0.06368359999999999
56,40,Zr,8.6353283,0.16397040000000002,95.908277615,14.312164600000001,21.1710812,-4.9964051000000005,3.3560294,-17.610546600000003,-6.7239065,7.8502378,11.5198939,0.6415251,7.6234196,3.6523506,0.29338580000000003
55,41,Nb,8.6288868,3.1920590000000004,95.908101586,15.3764034,17.829299900000002,-3.2112518,0.2188179,-11.6838642,-5.962276,6.8878769,7.231861100000001,-5.9150982,12.3773082,6.383252499999999,4.2707272000000005
54,42,Mo,8.653988,-2.9732411,95.90467477,16.5234461,16.1035,-2.7607814,-2.7145043,-10.4239201,-10.844852600000001,9.154335,9.297588900000001,-12.611469800000002,8.2849807,3.2820058,3.9735405000000004
53,43,Tc,8.6148673,0.2587369,95.907866675,17.8059526,14.0305273,-1.7932738,-6.133916,-6.3243478,-10.4352076,7.8716114,5.3987469,-21.3100028,13.303238100000002,5.849486,7.0375939
52,44,Ru,8.609413,-6.3926529,95.90758891,19.639419099999998,12.244247900000001,-1.6967139,-9.8969656,-5.6574838000000005,-15.8110867,10.693944400000001,7.3480013,-30.509,8.7887537,2.3897862,6.3730961
51,45,Rh,8.5346735,-3.5043127,95.914451705,22.922745,10.1073426,-3.1869451,-15.1760868,-0.9553484,-17.7931374,9.4184338,3.5189445,-41.598,13.606677,2.3930462,9.5647861
50,46,Pd,8.490020699999999,-11.6717741,95.918213739,26.2237751,8.1777595,-4.3071247,-20.612000000000002,-0.0146319,-24.349,14.2888247,5.1317742,,7.435010800000001,-2.3075548,6.6797059
49,47,Ag,8.3602903,-8.94,95.930743903,28.252,6.1819642,-3.9374661,-26.422,6.5399999,-25.527,12.677,1.8347036,,12.301442100000001,-0.6657807,10.1465663
48,48,Cd,8.259,-17.482,95.940341,31.274,4.047,-3.217,,7.105,,16.587,2.955,,7.541,-4.308,9.057
47,49,In,8.069,,95.959109,,0.265,-2.985,,14.527000000000001,,,-1.677,,13.061,,13.956
62,35,Br,8.14,13.423,96.963499,6.293,,,24.519000000000002,,11.01,3.862,,42.115,7.17,7.667,
61,36,Kr,8.2698645,11.095646,96.949088782,7.4072143,31.542,-8.988,21.1571755,,5.8595343,2.4131350000000005,16.503,35.5131943,7.1370000000000005,5.09,-4.974
60,37,Rb,8.3761872,10.0615295,96.937177117,8.7714735,29.247,-8.0538253,17.5963102,-27.598,6.3277852999999995,5.2361117,12.726434,27.0836521,8.3505829,7.692690499999999,-5.223
59,38,Sr,8.471848900000001,7.534780700000001,96.926375621,9.6060258,26.9996958,-6.8695875,14.356018899999999,-22.787963500000004,1.6779938,3.7337442000000003,14.515294200000001,18.964026399999998,8.0204401,4.8461724,-1.586492
58,39,Y,8.5414616,6.8212382,96.918286702,11.050153700000001,24.8030897,-5.9204705,9.487341899999999,-22.0500749,1.2520872,5.8567869,10.486177900000001,11.108981700000001,9.7126367,7.5943213,-1.9062613
57,40,Zr,8.6037182,2.6661038,96.910963802,13.4193888,22.397350600000003,-5.2757651999999995,4.608007499999999,-17.307416099999998,-5.4051806,5.569151,11.8956781,3.1838713,8.9820513,4.2788349,1.5554301000000001
56,41,Nb,8.6231384,1.9419038000000002,96.908101622,14.9591613,18.9728016,-3.8005572,1.6216397999999999,-14.5617818,-4.8792254,8.0712844,7.4529078,-3.0052325,10.7679506,6.53059,2.3950781