N,Z,element,be_per_a,beta_decay_energy,atomic_mass,s2n,s2p,qa,q2b,qep,qbn,s1n,s1p,q4b,qda,qpa,qna
110,78,Pt,7.9479027,-5.4496549000000005,187.959397521,16.0991583,9.39888,4.0066799,-7.6226183,-3.8909255,-12.8635073,9.2069261,5.560564,-20.009945199999997,12.0621878,7.3786433,10.6313408
109,79,Au,7.9147537,-2.1729634,187.965247966,16.7990947,7.7769064,4.8146247,-10.034911899999999,-0.1109091,-12.324123700000001,7.4138524,2.9749242,-25.176514400000002,16.2039397,9.1808845,13.6106452
108,80,Hg,7.8990339999999994,-7.8619485000000005,187.967580738,17.801928500000002,6.911846,4.7092193,-12.3873269,-0.8019607999999999,-15.8250772,10.1511602,4.4585419,-29.6539736,12.2273119,6.5238537,12.136194900000001
107,81,Tl,7.8530537,-4.5253784,187.976020886,18.596099,5.1994888,5.557395400000001,-15.141602500000001,3.4034065,-15.4207657,7.9631287,1.5068648,,16.9134632,8.711303299999999,15.1681492
106,82,Pb,7.8248211,-10.6162241,187.980879079,19.272763299999998,3.8499076,6.1088469,-17.266646700000003,3.0185136000000004,-19.4990671,10.895387300000001,2.6554034000000004,,12.7827226,6.8107755,14.019028700000002
105,83,Bi,7.7641904,-6.6504226,187.992276064,20.1919391,1.8898025,7.2636388,,7.9608207,-18.0899263,8.8828431,-0.5031838000000001,,18.196904,9.2104663,18.2093465
104,84,Po,7.7246544,,187.999415586,20.7885444,0.4414225,8.0822927,,7.1536064,,11.4395036,1.4500734,,13.3119267,6.555,16.6432359
117,72,Hf,7.917,4.809,188.970853,10.293000000000001,,-1.095,8.659,,-1.311,4.392,10.619,11.837,11.33,8.034,
116,73,Ta,7.938,3.85,188.96569,11.207,18.768,-0.424,6.0200000000000005,-15.428,-1.363,6.121,8.419,6.49,11.751,9.329,4.007
115,74,W,7.954,2.17,188.961557,12.048,17.387,0.08600000000000001,3.178,-12.268,-4.864,5.213,9.188,0.66,11.797,7.663,6.2620000000000005
114,75,Re,7.9618104999999995,1.0077049,188.959227764,12.905184499999999,15.6614889,0.9903585,0.4705555,-11.358,-4.9131136,7.0335345,6.6001875000000005,-4.3971386,12.6357539,9.3935607,6.2749077
113,76,Os,7.9630029,-0.5371494,188.958145949,13.9104227,13.660700199999999,1.9761535,-2.5173964,-7.6078924,-8.7131642,5.9208185,7.2588924,-9.3604236,12.9405537,7.8045738,9.1682027
112,77,Ir,7.9560214,-1.980247,188.958722602,15.0429118,11.811046000000001,2.9444793000000002,-4.8676942,-6.721743000000001,-8.7000008,8.1760148,4.6013221,-13.8335469,13.480169900000002,9.4144346,9.1240702
111,78,Pt,7.9414045,-2.8874470999999997,188.960848485,15.9266799,9.8283323,3.911587,-6.8430271000000005,-2.6210751,-12.1694087,6.7197538,5.4134208,-18.625386,13.790778399999999,7.5670003,12.1770286
110,79,Au,7.9219876000000005,-3.95558,188.963948286,16.6958139,8.6105236,4.3286837,-8.9658527,-2.5259737,-11.454925,9.2819615,3.0499596,-23.5172944,13.8142104,9.146544400000002,11.2367944
109,80,Hg,7.8969192,-5.010272700000001,188.968194776,17.6505052,7.5189588,4.6368499000000005,-11.7823589,0.9056204,-15.361293400000001,7.499345000000001,4.5440344999999995,-28.204382600000002,14.113209300000001,6.9525331,13.8844714
108,81,Tl,7.8662704,-6.7720861999999995,188.973573525,18.3141495,6.165267200000001,4.8171285,-14.5514417,0.4662382,-14.8763991,10.3510207,1.7067253,,14.2132107,8.787008700000001,12.7451528
107,82,Pb,7.8262999,-7.779355499999999,188.980843658,18.9997002,4.3034523,5.9147158,-16.4220237,5.0653609,-18.720537,8.1043129,2.7965875000000002,,15.3113799,6.9029759,16.3414419
106,83,Bi,7.7809999,-8.642668200000001,188.989195139,19.8240246,2.1980138,7.268165,,4.9827679,-17.591604200000003,10.9411815,-0.4573896,,15.633098400000002,9.4802887,15.4646783
105,84,Po,7.7311321,,188.998473425,20.3884396,1.0129826000000002,7.6942999,,9.100057699999999,,8.948936,1.5161663,,15.6720867,6.5875569,18.9053039
118,72,Hf,7.905,3.92,189.973376,10.113,,,9.569,,-0.912,5.721,,13.908,9.731,7.8340000000000005,
117,73,Ta,7.922000000000001,5.649,189.969168,10.952,19.478,-0.8250000000000001,6.863,,-0.982,4.832,8.859,8.034,12.821,9.144,4.696
116,74,W,7.9475031000000005,1.2141823999999999,189.963103542,11.843588100000002,18.117,-0.3695342,4.3389929,-14.508000000000001,-4.4610536000000005,6.631,9.698,2.9376714,10.252,7.3907729,4.2780000000000005
115,75,Re,7.9497759,3.1248105,189.961800064,12.7087705,16.251,0.5996717,1.1705997,-10.912,-4.667531,5.675236,7.063,-2.7494747000000004,13.795672699999999,9.1850842,6.9589375
114,76,Os,7.9621047,-1.9542108,189.958445442,13.7131601,14.617887000000001,1.3758612000000001,-1.4013215,-10.188,-8.329491,7.7923416,8.017699499999999,-7.337200200000001,11.0198622,7.3727784000000005,6.8426206
113,77,Ir,7.9477017,0.5528893,189.960543374,14.551295,12.314676200000001,2.74879,-3.9200744,-6.0634887,-8.355527200000001,6.375280200000001,5.0557838,-12.3873787,15.0944939,9.329455900000001,10.1093362
112,78,Pt,7.9464941,-4.4729637,189.959949823,15.6281703,10.7471446,3.2686121,-5.9358787,-5.6086731,-11.7958636,8.9084165,6.1458225,-16.8898968,11.7492588,7.1069281,9.5589136
111,79,Au,7.9188345,-1.462915,189.964751746,16.6048614,9.0665266,3.9138945,-8.467304200000001,-1.6728588,-11.2784799,7.3228999,3.6531058,-22.2376344,15.698236600000001,8.7158767,12.362238900000001
110,80,Hg,7.9070174,-7.004389199999999,189.96632225,17.3149099,8.1275976,4.0689065,-10.954018099999999,-2.1901908,-14.825837600000002,9.8155649,5.0776379,-26.807916900000002,11.7114967,6.5222106,10.9611387
109,81,Tl,7.8660345,-3.9496288,189.973841771,18.172469099999997,6.5728632,4.9237044,-13.7703302,1.9267512999999998,-14.593534600000002,7.8214484,2.0288287,,16.5429225,8.6163285,14.3089468
108,82,Pb,7.8411294,-9.8207014,189.978081872,18.748218700000002,4.7961978,5.697536100000001,-15.853898800000001,1.9208002,-18.423261200000002,10.6439057,3.0894725,,12.6306029,6.8920404,13.3483043
107,83,Bi,7.785323900000001,-6.0331975,189.988624828,19.5437414,2.8374449,6.862118499999999,,6.7312288,-17.245228,8.602559900000001,0.0408574,,17.9259259,9.2551048,17.4950887
106,84,Po,7.7494526,,189.995101731,20.160966600000002,1.3296258,7.6932733,,5.992340100000001,,11.2120306,1.7870154,,13.3428992,6.6846224,16.070649200000002
118,73,Ta,7.9110000000000005,4.657,190.97153,10.703,,-1.175,7.831,,-0.222,5.871,9.009,10.189,11.341000000000001,9.174,2.947
117,74,W,7.9314359,3.1742318000000003,190.966531,11.51,18.604,-0.601,5.2190629,-13.665000000000001,-3.6644796000000004,4.8786619,9.745000000000001,4.5221599999999995,11.494,7.598,5.3
116,75,Re,7.943958800000001,2.0448311,190.963123322,12.5139473,16.969,0.1202261,2.3584184,-12.92,-3.7139008,6.8387114,7.2705467,-0.5524975,12.169,9.181527599999999,5.206
115,76,Os,7.9505687,0.3135873,190.960928105,13.551073500000001,15.164,1.0838887,-0.6969029000000001,-9.3153778,-7.7129427,5.7587319,8.1011955,-5.8033902,12.2946647,7.4856965,7.9190435
114,77,Ir,7.948114400000001,-1.0104903,190.960591455,14.4018102,13.3076718,2.0828062,-2.9109159,-8.414782800000001,-7.4736408,8.0265301,5.2899723000000005,-10.4258756,12.9887823,9.2925301,7.954456100000001
113,78,Pt,7.9387279,-1.9004257,190.961676261,15.371566999999999,11.2894766,3.0957631,-5.1064872999999995,-4.279482,-10.9361142,6.4631505,6.2336928,-15.4070927,13.4621232,7.510674600000001,11.0853673
112,79,Au,7.9246818999999995,-3.2060616,190.963716452,16.358588400000002,9.926200300000001,3.3265503,-7.5149597,-4.3332671000000005,-10.4986035,9.035688500000001,3.7803778,-20.5585592,13.382301799999999,8.887114299999999,10.1934473
111,80,Hg,7.9038002,-4.3088981,190.967158301,17.1081069,8.700385700000002,3.6685968,-10.3006054,-0.5743161999999999,-14.296931200000001,7.292541900000001,5.0472799,-25.5231181,13.700916300000001,6.643521,12.8755229
110,81,Tl,7.877144500000001,-5.9917073,190.971784093,17.8094815,7.2789348,4.3209137,-13.043599500000001,-0.7383819,-13.9376619,9.9880331,2.2012968,-30.146864,14.0542344,8.7794557,11.734766100000002
109,82,Pb,7.8416782000000005,-7.0518922,190.978216455,18.589860400000003,5.2428075,5.4023497,-15.2225127,3.7904104000000003,-17.766656,7.945954700000001,3.2139788,,15.035669,6.9092145,15.5535099
108,83,Bi,7.8006613,-8.1706205,190.985786972,19.3173236,3.201188,6.780325,-17.1032645,3.8379134,-16.747961200000002,10.7147638,0.1117154,,15.315475000000001,9.435728300000001,14.7434537
107,84,Po,7.753787099999999,-8.932644,190.994558494,19.7893713,1.8026537,7.4933085,,8.0589051,,8.5773408,1.7617963,,15.70674,6.990124700000001,18.3886958
106,85,At,7.7029233,,191.004148081,,0.6493652,7.822272600000001,,7.1708477,,,-1.1376502000000002,,15.9967158,9.272345999999999,16.7051157
119,73,Ta,7.894,6.5200000000000005,191.975201,10.523,,-1.705,8.489,,0.005,4.652,,11.736,12.411,8.914,
118,74,W,7.924,1.969,191.968202,11.393,19.397000000000002,-1.215,6.263,,-3.341,6.515000000000001,10.389,6.6690000000000005,9.811,7.204,3.177
117,75,Re,7.930238900000001,4.293475000000001,191.966088,12.148449500000002,17.447,-0.10400000000000001,3.2468028,-12.358,-3.264907,5.3097381,7.701623,1.1833559,13.490811299999999,9.084,6.017
116,76,Os,7.948526,-1.0466722,191.961478765,13.317114,16.091412899999998,0.3606614,0.40622230000000004,-11.995098,-7.244794700000001,7.5583821,8.820866200000001,-3.870822,10.411518599999999,6.9608489,5.573
115,77,Ir,7.9389999,1.4528946,191.962602414,14.224652500000001,13.830558300000002,1.7563336,-2.0634468999999998,-7.7741939,-7.2086127,6.1981225,5.7293628,-8.9633821,14.583001399999999,9.0152261,8.7898681
114,78,Pt,7.9424923,-3.5163415000000002,191.961042667,15.124657800000001,12.1586423,2.4238600000000003,-4.2770443,-7.1822574,-10.561933000000002,8.6615073,6.86867,-13.736679500000001,11.175896000000002,7.0251821,8.3446785
113,79,Au,7.9201033,-0.7607028,191.964817615,16.0812801,10.5965116,3.1478557,-6.8999352,-3.3523286,-10.2516531,7.0455915000000005,4.3628188,-19.237647000000003,15.2451268,8.5612765,11.323870600000001
112,80,Hg,7.9120666,-6.1392324,191.965634263,16.7834922,9.2829195,3.3845726,-9.459635200000001,-3.602116,-13.799848400000002,9.490950300000002,5.5025417,-23.9449976,11.532865900000001,6.4345322,10.1043264
111,81,Tl,7.8760167,-3.3204029,191.972225,17.6486491,7.6166509,4.0741501,-12.3377118,0.6366907,-13.6523233,7.660616,2.5693709,-28.7979904,16.2091833,8.618184600000001,13.3561116
110,82,Pb,7.8546482,-9.0173089,191.975789598,18.277875100000003,5.759163,5.2215895,-14.4853623,0.7510319,-17.3838127,10.331920400000001,3.5578662,,12.525196900000001,6.9283148,12.7209345
109,83,Bi,7.8036084,-5.4680534,191.985470077,19.081267500000003,3.7462433,6.3769499,-16.4602787,5.459442699999999,-16.537124199999997,8.3665038,0.5322645,,17.592877,9.1735375,16.727970700000004
108,84,Po,7.7710542,-10.992225200000002,191.991340274,19.6464116,2.2278187,7.319625,,4.9357888999999995,-20.001714800000002,11.0690708,2.1161033000000002,,13.240229,6.862235399999999,15.4239379
107,85,At,7.7097283,,192.003140912,,1.0562949000000001,7.6956261,,8.876121900000001,,9.0094896,-0.7055014000000001,,18.1992568,9.2117925,18.6368076
120,73,Ta,7.883,5.38,192.97766,10.433,,,9.422,,0.739,5.781,,13.727,,8.855,
119,74,W,7.907,4.042,192.971884,11.156,,-1.465,7.205,,-2.672,4.642,10.379,8.290000000000001,11.041,7.394,4.257
118,75,Re,7.9239378,3.1627597,192.967545,12.023869300000001,18.29,-0.6970000000000001,4.304663499999999,-14.42,-2.4206561000000004,6.7141312,7.901,3.1731881,11.655342000000001,9.0012463,4.135
117,76,Os,7.9362716,1.1419038000000001,192.964149637,13.1417979,16.796166799999998,-0.01,1.0852761,-11.064,-6.6300881,5.5834158,9.094543900000001,-2.3322357,11.6668141,7.052669,6.6208336
116,77,Ir,7.938134600000001,-0.0566276,192.962923753,13.970114299999999,14.7638388,1.0178763,-1.1314754,-10.2364476,-6.3190973,7.7719919,5.9429726,-7.059086100000001,12.569741500000001,9.0355758,6.6931122
115,78,Pt,7.9337875,-1.0748477,192.962984546,14.923977,12.662379999999999,2.0822089,-3.4175118,-5.886345,-9.7788111,6.2624697,6.9330172,-12.250422200000001,12.939956500000001,7.1379926,9.8745504
114,79,Au,7.9241648,-2.3426641,192.964138442,15.7495549,11.273945,2.6199072,-5.927610700000001,-5.8581695,-9.4646662,8.703963400000001,4.4052749,-17.5202657,13.0043139,8.7657297,8.9951874
113,80,Hg,7.907973,-3.5849466000000003,192.966653395,16.612952399999998,9.9417711,2.9823243,-8.832910400000001,-2.0626108,-13.2612345,7.1220021,5.5789523,-22.736863000000003,13.4465523,6.63543,11.8907408
112,81,Tl,7.8853445,-5.247963700000001,192.970501994,17.336903900000003,8.257250200000001,3.6798238000000003,-11.592655,-1.9940057,-12.9966907,9.6762878,2.7547085000000004,-27.409895300000002,13.8254374,8.7574617,11.0027237
111,82,Pb,7.8540994,-6.344691300000001,192.976135914,18.080647400000004,6.215348,4.972207500000001,-13.9039526,2.4932553,-16.7660359,7.748727,3.6459771,-31.272175,14.764503000000001,7.0010362,14.7877724
110,83,Bi,7.817171800000001,-7.5592614000000005,192.98294722,18.787848399999998,4.1795549,6.306626100000001,-15.8172403,2.6987142,-15.889398,10.421344600000001,0.6216887000000001,,15.117486999999999,9.3960986,14.1280744
109,84,Po,7.773951,-8.2579789,192.991062421,19.3992075,2.6120007999999997,7.0938012,-17.3682224,6.9375726,-19.3223619,8.330136699999999,2.0797363,,15.6248561,7.1346586,17.737706900000003
108,85,At,7.7271099,-9.110243500000001,192.999927725,20.073872599999998,1.4059141,7.572424600000001,,6.1782426,,11.064383,-0.7101892000000001,,15.7122146,9.359440000000001,16.1749845
107,86,Rn,7.675853,,193.009707973,,0.46629109999999996,8.0399999,,9.8204327,,,1.1717925,,15.8898141,,19.2520305
121,73,Ta,7.865,7.28,193.98161,10.173,,,10.13,,0.988,4.392,,15.402000000000001,,,
120,74,W,7.899,2.85,193.973795,10.933,,-2.035,8.025,,-2.249,6.291,10.889,10.35,9.401,6.974,
119,75,Re,7.909,5.175,193.970735,11.814,18.738,-0.965,5.272,-13.74,-1.937,5.1000000000000005,8.359,4.952,13.07,8.78,4.906
118,76,Os,7.9320232,0.09659999999999999,193.965179407,12.6955094,17.393,-0.4912599,2.3249252,-13.534,-5.9701897,7.1120935,9.4925062,-0.2512244,9.864458800000001,6.7792869,4.3874021
117,77,Ir,7.9284885,2.2283252000000005,193.965075703,13.8387816,15.5208904,0.6263225,-0.3198266,-9.5891062,-6.1234174,6.0667897,6.4263465,-5.5942786,14.0613338,8.727518,7.465033900000001
116,78,Pt,7.935942,-2.5481518000000003,193.962683498,14.6142122,13.455740500000001,1.5228078,-2.5761496000000004,-8.654671700000002,-9.4265903,8.3517426,7.5127679,-10.552235300000001,10.7863364,6.8127801,7.2815398
115,79,Au,7.9187744,-0.027997800000000003,193.965419051,15.5824019,11.954261,2.1167489,-5.274452,-4.964616100000001,-9.2211026,6.878438500000001,5.0212437,-16.1889297,14.7873828,8.3504417,10.1432789
114,80,Hg,7.9145974,-5.2464542000000005,193.965449108,16.3151069,10.4733686,2.6976359000000003,-7.9760857,-4.993246,-12.7780514,9.193104799999999,6.0680937,-21.1793349,11.2990391,6.4780138,9.160786400000001
113,81,Tl,7.8835211,-2.7296315,193.971081408,17.207884999999997,8.7432559,3.4711265,-10.914477699999999,-0.8216395,-12.779561,7.5315972,3.1643036,-26.2210079,15.7847905,8.5184064,12.506815000000001
112,82,Pb,7.8654181,-8.1848462,193.974011788,17.7986564,6.7743272,4.737843,-13.2032491,-0.4346721,-16.3946207,10.049929400000002,4.0196187,-29.9324898,12.3751896,6.9391398,12.0303849
111,83,Bi,7.8191955,-5.0184029,193.982798581,18.6311191,4.728713300000001,5.9182999,-15.3065302,4.1652275,-15.7690359,8.2097745,1.0827362,,17.2396329,9.1322787,15.906333
110,84,Po,7.7892947,-10.288127300000001,193.988186058,19.0807696,3.0307133,6.987074,-16.7292407,3.9356667000000005,-19.008611900000002,10.750632900000001,2.4090246000000004,,13.2407269,7.0987894,14.9330286
109,85,At,7.732230400000001,-6.4411134,193.999230816,19.784867600000002,1.7598949000000002,7.4544999,,7.879102700000001,-17.830728,8.7204846,-0.3198413,,18.060800800000003,9.2162962,18.1692637
108,86,Rn,7.694996100000001,,194.006145636,,0.7868349,7.8624159,,6.7609548,,11.389614600000002,1.4970241000000002,,13.509689,6.7247657,16.439756700000004
121,74,W,7.881,4.82,194.977735,10.692,,,8.772,,-1.551,4.401,10.899000000000001,12.054,10.781,7.224,
120,75,Re,7.901,3.951,194.97256,11.471,19.329,-1.465,6.132000000000001,-15.719000000000001,-1.196,6.371,8.439,7.007000000000001,11.34,8.924,3.186
119,76,Os,7.9177449,2.1807220000000003,194.968318,12.2598315,17.900000000000002,-0.7603359000000001,3.2822820999999998,-12.391,-5.051138,5.147738,9.540000000000001,1.5017457,11.430852000000002,6.941287,5.7540000000000004
118,77,Ir,7.9249160000000005,1.1015601,194.965976898,13.2986497,16.0386192,0.23317390000000002,0.8747427,-11.721,-5.003534800000001,7.23186,6.546113,-3.5370261999999997,12.4128897,9.0540401,5.542912
117,78,Pt,7.926553,-0.2268175,194.964794325,14.4568375,13.9774196,1.1764449,-1.7805364,-7.6476731000000004,-8.6532467,6.1050949,7.5510731,-9.0558388,12.4532333,6.9058077,8.7348269
116,79,Au,7.9213778,-1.553719,194.965037823,15.3048677,12.6086984,1.7168497,-4.4117689,-7.324255600000001,-8.454426999999999,8.4264293,5.0959304,-14.541494199999999,12.6234232,8.5855197,7.9149722
115,80,Hg,7.909398,-2.8580499,194.966705809,16.0938129,11.111607,2.2600784,-7.2753024,-3.5422115,-12.1471623,6.9007081,6.0903633,-19.896687300000004,13.102294400000002,6.622897200000001,10.9215857
114,81,Tl,7.8907293,-4.417252400000001,194.969774052,16.820709599999997,9.328404800000001,3.2177026,-10.1297253,-3.2323134000000002,-12.0187439,9.289112300000001,3.2603111,-24.6849928,13.6176802,8.720244300000001,10.2632942
113,82,Pb,7.8640647,-5.7124729,194.974516167,17.6514209,7.2538165,4.4288935,-12.621384899999999,1.1569413,-15.786337600000001,7.6014914000000005,4.0895129,-28.788324499999998,14.449986,6.9982644,13.9198438
112,83,Bi,7.8307579,-6.908912099999999,194.980648759,18.2836393,5.1262903,5.8324683,-14.5552675,1.6229600000000002,-15.0922677,10.073864799999999,1.1066715999999999,,14.9144952,9.3903344,13.493084300000001
111,84,Po,7.7913155,-7.646355400000001,194.988065781,18.9339886,3.4653419,6.749673,-16.1669396,5.8022405,-18.471482899999998,8.1833556,2.3826057,,15.4787159,7.2819376,17.0815935
110,85,At,7.748091400000001,-8.5205842,194.99627448,19.545612000000002,2.1636778,7.3441362,,5.2637497,-17.2662409,10.8251275,-0.2453468,,15.565809999999999,9.460239600000001,15.71064
109,86,Rn,7.7003841,,195.005421703,20.1352713,1.202355,7.6940999,,8.765931,,8.7456567,1.5221963,,15.828415300000001,6.9885985,18.7631707
122,74,W,7.872,3.62,195.979882,10.473,,,9.537,,-1.2510000000000001,6.071,,13.905000000000001,9.101,6.934,
121,75,Re,7.886,5.918,195.975996,11.242,19.807000000000002,-1.684,7.0760000000000005,,-0.919,4.871,8.909,8.779,12.761000000000001,8.694,4.096
120,76,Os,7.9122300999999995,1.1583989,195.969643261,11.9845826,18.445,-1.082,4.367415299999999,-14.826,-4.6561226,6.836844600000001,10.006,3.5488212,9.694,6.8185736,3.559
119,77,Ir,7.9141487,3.2090164,195.968399669,13.046381499999999,16.753,-0.2716095,1.703196,-11.164,-4.7129614,5.8145215,7.2128965,-1.9389233,13.7104617,8.8229344,6.4425217
118,78,Pt,7.926529700000001,-1.5058204000000002,195.964954648,14.027072700000002,14.787303900000001,0.8128492,-0.8185941,-10.421912899999999,-8.1487952,7.9219778,8.2411909,-7.2963035000000005,10.5980453,6.7558218,6.3962650000000005
117,79,Au,7.9148553,0.6872263000000001,195.966571213,15.0694041,13.1848835,1.2719973,-3.6421193,-6.7353705,-8.196693799999998,6.6429748,5.633810400000001,-13.129685100000001,14.3321909,8.205014499999999,9.0439892
116,80,Hg,7.91437,-4.3293455000000005,195.965833445,15.7846281,11.6437845,2.0376656,-6.4777094,-6.3210366,-11.74197,8.8839201,6.5478540999999995,-18.3572126,11.0968128,6.4429405,8.3001353
115,81,Tl,7.8882900000000005,-2.1483638999999997,195.970481189,16.7017368,9.8625908,2.8506697,-9.4875659,-2.2185086000000003,-11.8298769,7.4126245,3.7722275,-23.5834234,15.3981605,8.429622,11.5546331
114,82,Pb,7.8733374000000005,-7.339202,195.972787552,17.2830045,7.7422246999999995,4.238330700000001,-11.8795032,-1.6238637000000002,-15.3939859,9.6815131,4.4819136,-27.3234035,12.3000702,6.9930392,11.3603328
113,83,Bi,7.8319009,-4.5403012,195.980666509,18.128648700000003,5.649477,5.4383004,-14.0958576,2.8572884,-14.963696,8.0547839,1.559964,,16.9096407,9.0842775,15.1145882
112,84,Po,7.8047445,-9.5555564,195.985540722,18.606750400000003,3.8388073,6.6581987,-15.4439003,2.9803371000000003,-18.069750199999998,10.4233948,2.7321356999999997,,13.2650957,7.2798874,14.4069257