N,Z,element,be_per_a,beta_decay_energy,atomic_mass,s2n,s2p,qa,q2b,qep,qbn,s1n,s1p,q4b,qda,qpa,qna
42,31,Ga,8.693874,1.5981889000000002,72.92517468,15.702853,21.5661512,-6.3880384,1.253413,-17.205308300000002,-5.184751400000001,9.1823777,8.84282,-6.053556899999999,8.3402496,4.7294597000000005,-1.0765607
41,32,Ge,8.70505,-0.34477589999999997,72.923458954,17.5335117,18.5466884,-5.3045420000000005,-3.0701363,-10.441008900000002,-11.1390422,6.7829403,9.9982196,-14.7457745,9.5524013,2.4766729,3.9136178
40,33,As,8.689609899999999,-2.7253604,72.923829086,19.2021358,15.391572,-4.0498527,-7.3069699,-9.6534437,-11.1558858,10.794266400000001,5.6558174,-24.941145400000003,9.6647073,4.4733349,3.6037958
39,34,Se,8.6415591,-4.5816095,72.926754881,21.223517500000003,12.8986814,-3.5516379000000002,-11.6756382,-2.930457,-17.2369638,8.4305254,7.2865590000000005,-36.277,10.3766677,0.9706324,7.9810423
38,35,Br,8.5680803,-7.0940287,72.931673441,23.2859963,10.330471900000001,-2.958521,-17.6341754,-2.7049494,-17.7765225,12.6553542,3.0665688,,10.2115352,3.1481682,6.3345889
37,36,Kr,8.4601847,-10.5401468,72.939289193,26.3671831,7.983185300000001,-2.5419595,-24.602,4.0274598,-26.293,10.682493899999999,4.7789786,,10.6614756,-0.2620758,11.024543900000001
36,37,Rb,8.3050821,-14.061,72.950604506,29.864,4.0871268,-2.1770492,,5.7611682,,15.753,-0.6399999000000001,,11.0264069,-0.047,11.060418
35,38,Sr,8.102,,72.9657,,0.201,-2.235,,14.701,,,0.909,,11.051,,14.796000000000001
48,26,Fe,8.076,12.881,73.977821,7.5520000000000005,,-17.444,28.041,,9.239,4.741,21.248,45.097,1.221,0.8240000000000001,
47,27,Co,8.239,15.16,73.963993,9.383000000000001,36.949,-15.515,22.466,-34.129,8.497,3.642,16.84,34.509,6.42,3.254,-11.274000000000001
46,28,Ni,8.433,7.306,73.947718,10.617,34.028,-14.235,17.056,-32.0,2.216,6.664,18.02,24.722,2.311,0.534,-11.124
45,29,Cu,8.5215633,9.7505077,73.93987486,12.3658424,30.284,-11.9061651,12.0434134,-25.326,1.5158800000000001,5.0900858,13.1870245,14.8538512,8.930662700000001,4.2640782,-5.989880100000001
44,30,Zn,8.6427547,2.2929057,73.92940726,13.753861800000001,26.108594099999998,-8.967767799999999,7.6657307,-22.937532100000002,-4.1286948,8.234627699999999,14.0582465,6.4564902,4.7370931,1.8184694,-4.7040825
43,31,Ga,8.663167600000001,5.3728248999999995,73.926945725,15.603978300000001,22.8445618,-7.4981613,2.8104378000000003,-16.3511522,-4.8234116,6.421600499999999,9.745186400000001,-2.7614647,10.8066757,4.1432153,0.30791070000000004
42,32,Ge,8.7252011,-2.5623871,73.92117776,16.9791769,19.8548984,-6.282618800000001,-1.2092403999999999,-15.118011300000001,-10.5410125,10.1962366,11.0120785,-11.090606900000001,5.87664,1.5807309,-0.4472626
41,33,As,8.680002,1.3531467000000001,73.923928596,18.7728917,16.8497221,-4.3748295,-5.5719025,-8.4496914,-10.703985699999999,7.9786253,6.8515024,-18.9440478,12.436653399999999,3.9106482000000002,4.9254651
40,34,Se,8.687715500000001,-6.9250492,73.922475933,20.4876578,14.2052424,-4.0760901,-9.881366400000001,-8.204649100000001,-16.638741999999997,12.0571324,8.549425,-31.386,6.7274048,0.5441015,3.3398485
39,35,Br,8.5835615,-2.9563173000000003,73.929910279,22.369047,11.636295200000001,-3.3791039,-13.3721453,-1.6243759,-16.8077215,9.7136928,4.3497363,,13.2908345,2.7224087,8.2514977
38,36,Kr,8.533039,-10.415828,73.933084016,24.533898,9.0415974,-2.8268603,-21.504,-1.3934190000000002,-24.391551,13.851404200000001,5.9750285000000005,,7.4407134,-0.9653624,6.4610729000000005
37,37,Rb,8.3817123,-11.089,73.944265867,29.729,7.4322077,-2.9153049,,4.4407995,-28.037,13.975722900000001,2.6532291,,12.7353732,-0.7247498000000001,10.232812599999999
36,38,Sr,8.221,,73.95617,,1.465,-2.152,,8.435,,16.948,2.105,,8.213000000000001,-3.673,11.146
49,26,Fe,7.996,15.861,74.984219,6.853,,,29.54,,10.769,2.112,,47.859,2.711,1.334,
48,27,Co,8.197000000000001,13.68,74.967192,8.734,38.438,-16.366,23.91,,10.069,5.091,17.19,37.9,4.14,3.553,-13.745000000000001
47,28,Ni,8.369,10.23,74.952506,10.275,34.829,-14.736,18.319,-30.87,3.6950000000000003,3.611,17.989,27.617,4.44,0.924,-9.344
46,29,Cu,8.4950801,8.0886967,74.941523817,11.6254106,31.079,-12.5252049,13.9904198,-28.219,3.2151829,6.535324800000001,13.059000000000001,18.5639836,6.3487469,4.619904099999999,-8.524000000000001
45,30,Zn,8.5924981,5.9017231,74.932840244,13.1081415,27.028699,-9.577596400000001,9.2980567,-21.148,-2.5806081,4.8735139,13.841674600000001,9.610573,7.1393358,2.0881453999999997,-2.6864456
44,31,Ga,8.6607565,3.3963337,74.926504484,14.9039318,24.051136500000002,-8.174420600000001,4.5735638,-19.7433976,-3.1095063,8.4823312,9.99289,0.6463805,7.8435785,4.5489107,-3.0312305999999998
43,32,Ge,8.6956096,1.1772301,74.92285837,16.7020765,20.8415043,-6.9531026,0.3125162,-13.3892236,-9.0682271,6.50584,11.0963179,-7.5333412,8.5531777,1.5953662,1.934924
42,33,As,8.7008748,-0.8647139,74.921594562,18.2240825,17.912801599999998,-5.3199921,-3.9271833000000003,-12.273548000000002,-8.892310499999999,10.2454572,6.9007231,-15.8155011,8.9741365,4.415762399999999,1.2004831
41,34,Se,8.6789139,-3.0624694,74.92252287,20.0847291,15.449898800000001,-4.6877481,-7.8458574,-6.0360092000000005,-14.9526458,8.0275966,8.598396300000001,-25.5507873,9.4940745,0.9243744,6.0628233
40,35,Br,8.627649700000001,-4.783388,74.925810566,21.6038691,12.732205200000001,-3.6386787,-11.888317800000001,-5.535926900000001,-14.8464936,11.8901764,4.1827802,-37.287,9.8311835,3.6252244,4.7691908000000005
39,36,Kr,8.553439899999999,-7.1049299,74.930945744,23.9145098,10.674177600000002,-3.6020327,-17.7049299,0.6006078,-20.478933700000002,10.0631057,6.3244413999999995,,10.032962,-0.397826,9.1909594
38,37,Rb,8.4482762,-10.6,74.9385732,27.349726800000003,8.1508573,-3.1411912,-25.399,0.7804885,-24.463,13.3740038,2.1758287999999997,,10.0438632,1.5859355000000002,7.4894508
37,38,Sr,8.2965116,-14.799,74.949952767,30.811,4.6448860000000005,-2.7164067,,8.4241712,,13.863,1.9916568000000001,,10.1037164,-3.4250000000000003,12.968282499999999
36,39,Y,8.089,,74.96584,,0.386,-1.955,,12.807,,,-1.719,,10.841000000000001,,12.157
49,27,Co,8.131,16.53,75.972453,8.262,,-16.915,25.322,,10.509,3.1710000000000003,18.249,40.637,5.711,3.194,-13.313
48,28,Ni,8.338000000000001,8.791,75.954707,9.632,36.108000000000004,-15.365,20.113,-34.779,4.2090000000000005,6.021,18.919,31.023,2.061,0.643,-12.554
47,29,Cu,8.4436018,11.3213964,75.945268974,11.118051,32.019,-13.106,15.3150206,-27.71,3.5059706000000004,4.5827262,14.030000000000001,21.3097562,8.43,3.9905869,-7.3660000000000005
46,30,Zn,8.5822735,3.9936241,75.933114956,12.6889397,28.181,-10.5018715,10.9098743,-25.352,-1.9137028,7.8154258,15.121775600000001,12.9489354,4.4139957999999995,1.5484761,-6.548462499999999
45,31,Ga,8.624527200000001,6.9162501,75.928827624,14.3896581,24.868377499999998,-8.938557500000002,5.9947357000000006,-19.1153997,-2.5109932,5.9073269,11.026703,3.9924303,10.170879300000001,4.1608179000000005,-1.662801
44,32,Ge,8.7052364,-0.9215145,75.921402725,15.9330833,22.034119999999998,-7.4923194,2.0390612000000004,-17.9429531,-8.2500132,9.4272434,12.04123,-4.199192200000001,5.5475349,1.3505006000000002,-1.9730853
43,33,As,8.6828172,2.9605756000000003,75.922392011,17.573956,18.8196998,-6.1280157,-2.0023053,-11.1197156,-8.1932126,7.3284988,7.723381900000001,-11.812295,11.841874299999999,3.870204,3.0543621
42,34,Se,8.7114781,-4.962881,75.919213702,19.1813849,16.4074505,-5.090965000000001,-6.2382534,-10.6839575,-14.2162577,11.1537883,9.5067274,-21.004313800000002,6.3189115000000005,0.5648524,1.6919753000000002
41,35,Br,8.635883,-1.2753724,75.924541574,21.143553100000002,14.0069566,-4.484185900000001,-9.809989600000002,-4.5438464000000005,-14.0367647,9.2533767,5.4085603,-32.039,12.634939200000002,2.8023730000000002,6.3100804
40,36,Kr,8.6088077,-8.534617200000001,75.925910743,22.824498,11.3784376,-3.570433,-14.7660604,-4.1331879,-19.8663222,12.761392299999999,7.1956574,,6.9852624,-0.5038641,4.860092400000001
39,37,Rb,8.4862161,-6.2314432,75.935073031,24.7057088,9.768869500000001,-3.8422541000000003,-22.229,1.3389599,-21.9317049,11.3317049,3.4444281,,12.5635624,0.9367245000000001,8.8131001
38,38,Sr,8.393929400000001,-15.998000000000001,75.94176276,29.563000000000002,6.4937436,-2.7319792000000005,,2.7870151,-30.499000000000002,15.7002618,4.3179148,,8.3791775,-3.3719792,7.950514600000001
37,39,Y,8.173,,75.958937,,0.912,-2.345,,11.68,,14.501,-1.08,,13.288,-1.436,13.408
50,27,Co,8.082,15.44,76.976479,7.492,,-17.634,26.953,,12.209,4.321,18.608,44.083,3.501,3.614,
49,28,Ni,8.272,11.513,76.959903,9.252,37.228,-15.785,21.439,-34.049,5.5600000000000005,3.231,18.979,33.863,3.9210000000000003,1.054,-11.044
48,29,Cu,8.4112501,9.926375,76.947543599,10.5352447,32.88,-13.318,17.1295245,-30.492,5.3688778,5.9525186,13.962,25.053506300000002,6.088,4.702,-9.676
47,30,Zn,8.5300037,7.2031495,76.936887197,12.372923,29.127,-11.1059596,12.423667100000001,-23.888,-0.5638730000000001,4.5574972,15.0965466,15.810294,6.391823400000001,2.0810648,-4.442
46,31,Ga,8.6133907,5.2205176,76.929154299,13.674349399999999,26.1000752,-9.429823500000001,7.9239818,-22.299696100000002,-0.8507724,7.7670225,10.978299699999999,7.2424653,7.2773707000000005,4.628423,-4.3397377
45,32,Ge,8.6710293,2.7034642,76.923549843,15.4985333,23.231896100000004,-8.044375200000001,3.3866269000000004,-16.1988172,-6.9928044,6.07129,12.2051931,-1.0434186,7.9585762,1.7008112000000002,0.1902524
44,33,As,8.6959789,0.6831627,76.920647555,17.0247674,20.0336372,-6.6419066,-0.6815165,-14.908657300000002,-6.735693,9.6962686,7.9924072,-9.0858344,8.651445599999999,4.370171900000001,-0.22030600000000003
43,34,Se,8.6946908,-1.3646792,76.91991415,18.572644,17.3204662,-5.7268804,-4.4300455,-8.675569900000001,-12.3817367,7.4188557,9.5970844,-16.7960537,9.145513000000001,1.1246221,4.4693562
42,35,Br,8.6668073,-3.0653663,76.921379193,20.2704342,14.7785569,-4.7069771000000005,-8.4043179,-8.232405199999999,-12.2924299,11.017057500000002,5.2718295,-26.796,9.6454784,3.8424479000000002,3.2716483
41,36,Kr,8.616837,-5.338951600000001,76.924669999,21.9884559,12.5779045,-4.3669712,-12.366008200000001,-2.2064632000000004,-17.761680799999997,9.2270636,7.169344199999999,-38.569,9.6483752,-0.0172349,7.6901611999999995
40,37,Rb,8.5373396,-7.0270566,76.930401599,23.7544342,10.3014224,-3.6096291000000003,-18.392,-1.8303926,-18.6541724,12.4227292,3.105765,,10.2039388,2.3653994,6.1040637
39,38,Sr,8.4359188,-11.365,76.937945454,27.327377600000002,8.057753700000001,-3.6766012000000003,-26.203,3.9212916,-27.625,11.6271158,4.6133256000000005,,10.1260656,-1.023372,10.174803
38,39,Y,8.278,-14.839,76.950146,30.761,3.798,-2.852,,6.751,,16.26,-0.52,,10.891,-0.747,11.124
37,40,Zr,8.075,,76.966076,,-0.441,-2.075,,15.359,,,0.639,,10.931000000000001,,14.874
50,28,Ni,8.238,9.91,77.962555,8.832,38.868,-16.645,22.603,,5.912,5.601,20.259,36.982,1.491,0.545,-14.533
49,29,Cu,8.3546695,12.693768,77.951916524,9.9504828,33.708,-13.674,18.9146112,-30.169,5.9284108,3.9979642,14.728,28.0274955,8.111,4.315,-8.583
48,30,Zn,8.50738,6.2208433,77.938289204,11.322854300000001,29.871000000000002,-11.208,14.3788162,-27.422,0.4377923,6.7653572,15.909385200000001,19.5427095,4.2091924,1.8510325,-7.596
47,31,Ga,8.5771043,8.1579729,77.931610854,13.5500735,27.300400000000003,-10.1227886,9.1128843,-22.1302284,-0.5625334000000001,5.7830509,12.2038534,9.748082700000001,9.309745600000001,3.7188859,-3.5874638
46,32,Ge,8.6716636,0.9549114,77.922852911,14.7917962,24.136976500000003,-8.5302538,5.1638933,-20.3618263,-6.017042099999999,8.720506299999998,13.1586768,2.3162251,5.1453968,1.4626360999999999,-3.6567399000000003
45,33,As,8.673876,4.2089818999999995,77.921827771,16.668222099999998,21.0982637,-7.1922595000000005,0.6351984,-14.1135882,-6.2887907,6.9719534,8.8930706,-5.8815423000000004,11.106735500000001,3.9040584,1.2900717
44,34,Se,8.7178072,-3.5737836,77.917309244,17.9166284,18.3909956,-6.0284165000000005,-2.8476683,-13.1020526,-11.8624519,10.4977727,10.398588400000001,-13.8520021,5.9762391,0.8723066,0.4774235
43,35,Br,8.6619594,0.7261153,77.921145858,19.3057258,15.7387265,-5.0170201,-6.516740700000001,-6.8248048,-11.3540346,8.2886683,6.1416421,-21.279,12.5105983,3.5813763,5.2284371
42,36,Kr,8.6612385,-7.242856,77.920366341,21.307213500000003,13.5042661,-4.3899886,-11.004333800000001,-6.8677574,-17.4191015,12.0801499,8.232436600000002,-33.329,6.8216021,-0.20720840000000001,3.637608
41,37,Rb,8.558351199999999,-3.7614779,77.928141866,22.5989747,11.2242911,-4.0721818,-14.762,-0.9895806,-17.203302100000002,10.1762455,4.0549469,,12.7890857,2.2522596,7.8179945
40,38,Sr,8.500097100000001,-11.001,77.932179979,25.068939999999998,8.738185600000001,-3.2670212000000003,-22.324,-0.293469,-24.807000000000002,13.4418243,5.6324206000000006,,8.0159463,-1.0911924,6.7960844
39,39,Y,8.349,-11.323,77.94399,30.066,6.272,-2.682,,5.369,-28.644000000000002,13.806000000000001,1.659,,12.785,-0.6900000000000001,10.692
38,40,Zr,8.194,,77.956146,,1.18,-2.447,,9.665000000000001,,17.321,1.7,,8.111,-4.166,11.415000000000001
51,28,Ni,8.15,14.248000000000001,78.969769,6.953,,-15.885,25.272000000000002,,8.558,1.352,20.129,41.367,4.46,2.364,-11.923
50,29,Cu,8.320938,11.0242629,78.9544731,9.687847,35.076,-14.272,20.1403165,-34.377,7.003885100000001,5.6898828,14.817,31.228042000000002,5.6530000000000005,4.646,-11.102
49,30,Zn,8.450582500000001,9.116053599999999,78.942638067,10.7857349,30.66,-11.617,16.0948778,-25.841,2.2004655,4.0203778,15.9317987,22.485164,6.1413332,2.4133809,-5.596
48,31,Ga,8.5560725,6.9788242,78.932851582,12.698639,28.2634695,-10.5030519,11.0877256,-25.0478523,1.2423848000000002,6.9155881,12.3540843,13.519712100000001,6.951654700000001,4.618723699999999,-5.9203257
47,32,Ge,8.6345089,4.1089014,78.925359506,14.4569456,25.315918699999997,-9.3931793,6.390286199999999,-19.3329086,-4.781528000000001,5.7364394,13.112065300000001,4.9151101,7.175979900000001,1.6335236,-1.5777535
46,33,As,8.6766172,2.2813849,78.920948419,15.862382799999999,22.221670600000003,-7.600357600000001,2.4319865,-17.2209667,-4.6814474,8.8904294,9.062993800000001,-2.8333027000000004,8.2875961,4.4408724,-1.6930307
45,34,Se,8.695592300000001,0.1506016,78.918499252,17.460605,19.2825379,-6.4854088,-1.4751760999999999,-11.3443786,-10.536615900000001,6.9628323000000005,10.3894673,-10.4378016,8.7096755,1.237973,2.9418345
44,35,Br,8.6875956,-1.6257778,78.918337574,18.9758858,16.7296753,-5.458780300000001,-5.265289200000001,-10.5400689,-9.9611022,10.687217500000001,6.331086900000001,-18.2651324,9.2422365,4.0479471,1.8697184
43,36,Kr,8.657112999999999,-3.6395114,78.920082919,20.415474300000003,14.4207348,-4.6977164,-8.9626255,-4.705309199999999,-15.578180399999999,8.3353244,8.2790927,-27.672,9.503335100000001,0.7108439,6.4560718
42,37,Rb,8.6011401,-5.3231139999999995,78.923990095,22.1149145,12.1459026,-4.1206745,-12.999843199999999,-4.6395813,-15.7001468,11.938669,3.913466,-39.152,10.0774803,3.0749829,5.1327023
41,38,Sr,8.5238558,-7.676729099999999,78.929704692,23.818857100000002,9.8881548,-3.5809484000000005,-18.709,1.409648,-21.378,10.3770328,5.833207900000001,,10.0616427,-0.13652029999999998,9.1804439
40,39,Y,8.4167788,-11.033,78.937946,27.507,7.5503773,-3.0091491,-26.153000000000002,1.8435211999999999,-25.025000000000002,13.701,1.9179567,,10.7113152,1.3087657,8.3225558
39,40,Zr,8.267,-15.120000000000001,78.94979,31.313000000000002,3.545,-2.577,,9.115,,13.992,1.8860000000000001,,10.379,-3.656,13.124
38,41,Nb,8.066,,78.966022,,-0.21,-2.255,,13.234,,,-1.9100000000000001,,10.661,,12.246
52,28,Ni,8.088000000000001,13.44,79.975051,4.503,,-15.075000000000001,28.409,,11.097,3.1510000000000002,,46.295,2.791,3.5340000000000003,
51,29,Cu,8.246,14.969000000000001,79.960623,8.033,35.937,-13.444,22.544,,8.682,2.343,15.808,35.535000000000004,8.911,5.535,-9.123
50,30,Zn,8.4235457,7.5750553,79.944552929,10.3080133,31.347,-11.883000000000001,17.8866951,-30.778000000000002,2.8284181,6.2876355,16.5295514,26.110868,3.8516619000000003,2.0782640000000003,-8.652000000000001
49,31,Ga,8.5084545,10.3116397,79.936420773,11.662225300000001,29.0121426,-10.666962999999999,12.990926600000002,-24.1046067,2.232187,4.746637300000001,13.080343800000001,16.6653504,8.9703746,4.4295836,-4.7144444000000005
48,32,Ge,8.6275707,2.6792869,79.925350773,13.8158921,26.6300143,-9.6572063,8.224173,-23.3919835,-3.9705513999999997,8.0794528,14.27593,8.3581407,4.8795781,1.3210934,-5.0997091
47,33,As,8.6512824,5.5448861,79.92247444,15.5402676,23.0884579,-8.342869,3.6744239,-16.9552169,-4.368453400000001,6.649838300000001,9.976392599999999,-0.0391247,10.358264100000001,3.8623241,-0.5758465
46,34,Se,8.710814200000002,-1.8704623,79.916521761,16.8761718,20.4753711,-6.9715050000000005,0.13396770000000002,-15.521278700000002,-9.7627379,9.913339500000001,11.4123774,-7.4480198,5.7682894,1.0209022,-0.9002150000000001
45,35,Br,8.6776541,2.0044299000000003,79.918529784,18.5794931,17.6499975,-6.0225572000000005,-3.7135485,-9.5419151,-9.518053400000001,7.8922756000000005,7.260530200000001,-14.7408625,11.8477336,3.5745272,3.6737114
44,36,Kr,8.6929301,-5.7179785,79.91637794,19.8578078,15.4454455,-5.0664115,-7.5819875,-9.264960199999999,-15.1619948,11.5224833,9.1143586,-23.134,6.2695201,0.20541800000000002,2.3524442
43,37,Rb,8.611676,-1.864009,79.922516442,21.382685300000002,13.3012506,-4.311314,-11.027314,-3.3963801,-14.767130300000002,9.4440163,5.0221579,-33.755,12.7136139,2.8580302000000004,6.7057435
42,38,Sr,8.578596600000001,-9.163305000000001,79.924517538,23.2801541,10.7111263,-3.7226774000000002,-15.552,-3.1581488,-20.5798504,12.9031213,6.7976602999999995,,7.3347669,-0.6169124,5.5043862
41,39,Y,8.4542759,-6.388,79.93435475,25.118000000000002,8.790677299999999,-3.0939896,-22.728,2.3656447,-22.449,11.4165454,2.9574693,,12.736594,1.519336,9.3287396
40,40,Zr,8.365,-16.339,79.941213,30.053,6.164,-2.9370000000000003,,3.431,-31.181,16.061,4.246,,8.124,-3.457,8.69
39,41,Nb,8.151,,79.958754,,0.8250000000000001,-2.595,,12.094,,14.841000000000001,-1.061,,13.14,-1.956,13.665000000000001
52,29,Cu,8.185,14.289,80.965743,5.6450000000000005,,-12.425,25.718,,11.667,3.302,15.959,40.623,6.961,7.8340000000000005,-10.944
51,30,Zn,8.3519262,11.4282924,80.950402617,8.9100035,32.618,-11.274000000000001,20.0920259,-30.249000000000002,4.9526873,2.6223681,16.809,30.189349900000003,6.9191767,3.4538601,-5.673
50,31,Ga,8.4833576,8.663733500000001,80.938133841,11.222242399999999,29.7978649,-11.190049499999999,14.9053524,-28.237000000000002,3.8360346,6.4756051,13.2683135,20.3490891,6.5151472,4.719335600000001,-7.1920853
49,32,Ge,8.5806587,6.241618900000001,80.928832941,12.9071517,27.437335500000003,-9.927408,10.0973239,-21.932047,-2.148412,4.827698900000001,14.356991599999999,11.404504000000001,6.9674673,2.2764454,-3.1620509
48,33,As,8.6480571,3.855705,80.922132288,15.0398692,24.5629008,-8.9658774,5.4437367000000005,-20.5986105,-2.8451448,8.3900309,10.286970799999999,2.9233897000000004,7.7046726,4.1927994,-3.1828265
47,34,Se,8.6859998,1.5880317,80.917993019,16.6141894,21.4397816,-7.601064900000001,1.30718,-14.1426759,-8.5713121,6.700849900000001,11.463389,-4.8608849,7.9578689,1.2920057999999999,1.1194414
46,35,Br,8.6959465,-0.2808517,80.916288197,18.0516194,18.9189119,-6.485632400000001,-2.520347,-13.051420700000001,-8.1549139,10.1593438,7.5065346,-12.264132100000001,8.651222100000002,3.9129560000000003,0.4863211
45,36,Kr,8.6828206,-2.2394954,80.916589703,19.396545500000002,16.3566754,-5.521618,-6.1680649,-7.2256829,-13.5920407,7.874062200000001,9.0961452,-20.1717807,9.0826754,0.6200241,4.9761547
44,37,Rb,8.645513900000001,-3.9285695,80.9189939,20.7965616,13.966578400000001,-4.6468018,-9.7437851,-6.8566498000000005,-13.2165543,11.3525453,4.8522198,-29.096,9.696393,3.5856348,3.6418665000000003
43,38,Sr,8.5873545,-5.8152156,80.923211393,22.191106100000002,11.663786700000001,-3.7835986,-14.0037159,-0.9236503,-18.451289799999998,9.2879848,6.6416288,-40.068,9.9854511,0.2713483,8.296551299999999
42,39,Y,8.5059031,-8.1885003,80.929454283,24.0526197,9.4880825,-3.3073346000000003,-19.352,-0.8264132,-19.024,12.6360742,2.6904222,,10.477552600000001,2.3250859999999998,6.8689109