N,Z,element,be_per_a,beta_decay_energy,atomic_mass,s2n,s2p,qa,q2b,qep,qbn,s1n,s1p,q4b,qda,qpa,qna
136,88,Ra,7.6799236,-1.4083152,224.020210361,11.6370088,12.1240666,5.7889231,-1.169748,-8.852877000000001,-7.0705404,6.4787305,6.8454679,-6.9168579,13.158536400000001,10.4126366,10.0008804
135,89,Ac,7.6701438,0.2385672,224.021722249,12.5302858,10.721897499999999,6.326899900000001,-3.6282033,-5.4371526999999995,-7.2225723,5.6622252,4.2880683,-11.798099800000001,16.6247496,12.134326,12.603298800000001
134,90,Th,7.6677162,-3.8667705000000003,224.021466137,13.3500944,8.9025667,7.2985734,-5.7471098000000005,-4.5266355,-10.4133519,7.4611394,5.1184454,-15.285,14.084590200000001,10.328587299999999,12.678105799999999
133,91,Pa,7.6469612,-1.8803393000000002,224.025617286,14.344646000000001,7.3373884,7.6936799,-8.1698965,-1.2516749,-10.2542451,6.5465814,2.8120219000000004,-19.398,17.3701192,11.7864805,14.9777048
132,92,U,7.6350742,-6.2895572,224.027635913,14.6727796,6.038290600000001,8.628236800000002,-9.538,-0.9316826,-12.9872104,8.373905800000001,3.883895,,14.389136500000001,10.2318086,14.4491668
131,93,Np,7.6035032000000005,-3.248,224.03438803,15.3850296,4.6100555000000005,9.3289344,-11.228,2.4056621000000002,-12.16,6.6976533,1.3020016,,18.470220700000002,12.3763068,17.303712800000003
141,84,Po,7.626,4.28,225.037123,8.641,,,8.046,,-1.202,3.402,9.779,12.587,13.051,10.494,
140,85,At,7.641,3.765,225.032528,9.271,16.518,3.6750000000000003,6.479,-14.059000000000001,-0.217,5.4830000000000005,6.9,8.662,13.932,12.677,6.996
139,86,Rn,7.6543581000000005,2.7135412000000003,225.028485572,9.998231400000002,15.122,4.3354705000000004,4.5410996,-10.665000000000001,-3.2857893,3.9822733,8.465845999999999,4.2239504,13.816942,10.445170000000001,9.6942777
138,87,Fr,7.662941200000001,1.8275584,225.025572466,10.7043635,14.1853484,4.6129568,2.183297,-11.179387199999999,-3.0765486,5.9993305,5.913467499999999,-0.5360381,14.1416705,12.3127002,8.5139758
137,88,Ra,7.6675866,0.3557386,225.023610502,11.3828376,12.974637000000001,5.0967734,-0.3171492,-7.7410258999999995,-6.3124222,4.904107,7.0445419000000005,-5.3789575,14.3215212,10.478995600000001,11.267488799999999
136,89,Ac,7.6656906000000005,-0.6728878,225.023228601,12.330386,11.322966500000001,5.935138,-2.7193351,-7.4002805,-6.4295936000000005,6.6681608,4.4774986,-9.9807929,15.114867,12.181155,10.905604
135,90,Th,7.6592229,-2.0464473,225.023950975,13.2178453,9.5009943,6.921399900000001,-5.0618083,-3.8046108,-9.6234763,5.7567058,5.212926,-13.99,15.1959449,10.5524506,13.636389800000002
134,91,Pa,7.6466504,-3.015361,225.026147927,14.1236104,8.0463569,7.4006757,-7.261457900000001,-3.1664787000000003,-9.4573684,7.5770291,2.9279116,-18.034,15.6820451,12.0176564,13.3812449
133,92,U,7.6297717,-4.2460968999999995,225.02938505,14.8159132,6.591343,8.007159399999999,-8.928,0.0874494,-12.7315646,6.4420074000000005,3.7793211,,15.7451937,10.1716953,15.8153644
132,93,Np,7.6074231,-4.682,225.033943422,15.183121,5.2974586,8.8182451,-10.772,0.4667758,-11.734,8.4854677,1.4135635,,16.2836268,12.209319299999999,15.2001392
142,84,Po,7.614,2.8890000000000002,226.04031,8.504,,,8.801,,-0.8220000000000001,5.103,,13.881,11.19,10.173,
141,85,At,7.6240000000000006,5.913,226.037209,9.194,16.988,3.285,7.139,,0.055,3.7110000000000003,7.2090000000000005,10.351,15.46,12.445,8.066
140,86,Rn,7.6464108,1.2266542,226.03086138,9.8405409,15.741,3.8360102,5.079618000000001,-13.122,-3.1447263,5.8582675,8.841,5.5495445,11.746982599999999,10.1832407,7.315
139,87,Fr,7.6483768,3.8529638,226.029544512,10.370711100000001,14.7684207,4.1425952,3.2113386,-10.068,-2.5438221,4.3713805,6.3025747,1.4869398,15.786248100000002,11.994856200000001,9.7389335
138,88,Ra,7.6619636,-0.6416252,226.025408186,11.300892900000001,13.3554648,4.8707028,0.46992649999999997,-10.1555385,-6.041047300000001,6.3967859,7.441997300000001,-3.6612218,12.6297683,10.1493015,8.9242395
137,89,Ac,7.6556628,1.1115517,226.026096999,12.0675829,12.017355600000002,5.5061819,-1.7243987,-6.8003721,-6.0723099000000005,5.3994221,4.9728137,-8.507675800000001,16.1941754,11.9400111,11.5732738
136,90,Th,7.6571195,-2.8359504,226.024903699,12.9405675,10.206125400000001,6.4525282,-4.1311482999999996,-6.084365399999999,-9.2303089,7.1838616,5.7286268,-12.432,13.674308499999999,10.236649600000002,11.6108064
135,91,Pa,7.6411093,-1.2951978,226.027948217,13.9713875,8.7784902,6.9868864,-6.783277,-2.8926764,-9.4097194,6.3943584,3.5655642,-16.936,16.7488261,11.5122529,13.854947000000001
134,92,U,7.631916599999999,-5.4880792000000005,226.029338669,14.556529000000001,7.2447252,7.7008428,-8.301,-2.2703663,-12.360618500000001,8.1145216,4.316813600000001,,14.1772535,9.855238300000002,13.589797800000001
133,93,Np,7.6041714,-2.813,226.035230364,15.358007,5.6234165,8.3275999,-10.153,1.1712656,-11.555,6.872539300000001,1.8440954,,17.7849934,11.6356538,16.125664500000003
143,84,Po,7.596,4.8500000000000005,227.04539,8.442,,,9.395,,-0.451,3.339,,15.103,,10.075000000000001,
142,85,At,7.613,4.5440000000000005,227.040183,9.012,,2.765,7.748,,0.612,5.301,7.407,11.581,13.561,12.384,6.007000000000001
141,86,Rn,7.6300508,3.2033894000000003,227.035304393,9.7909447,16.272000000000002,3.382,5.7083708,-11.952,-2.706023,3.9326771,9.063,7.0810756,13.297,10.0388717,8.622
140,87,Fr,7.6407162,2.5049813,227.031865413,10.2807929,15.195,3.8295211,3.8329302,-12.266,-2.0564486000000004,5.9094124,6.353719600000001,2.8520745,13.859109,12.1014019,7.6178293
139,88,Ra,7.6483048,1.3279489000000002,227.029176205,10.958215899999999,13.9346215,4.3628095,1.3727048,-8.8587009,-5.2030552,4.5614300000000005,7.6320467,-1.8675697,14.067668900000001,10.2929046,10.3787676
138,89,Ac,7.650708400000001,0.0447559,227.027750594,11.9304262,12.549029200000001,5.0422697,-0.9808557,-8.959995600000001,-5.4194524,6.5310041000000005,5.1070318,-6.7295034,14.5672784,11.887737600000001,9.7473027
137,90,Th,7.6474591,-1.0256117,227.027702546,12.648069900000001,10.766226699999999,6.1465981,-3.2402746000000002,-5.1517878,-8.3001587,5.4642083,5.793412999999999,-10.965,14.8782611,10.434666499999999,12.6253287
136,91,Pa,7.6394945,-2.2146629,227.028803586,13.668905500000001,9.3848764,6.580399900000001,-5.7486477,-4.7678013,-8.5697449,7.2745470999999995,3.6562496,-15.35,15.2309849,11.6988453,12.2426251
135,92,U,7.6262918,-3.5339848000000003,227.031181124,14.469603600000001,7.843101300000001,7.2347157,-7.7250000000000005,-1.4415867,-11.8431612,6.355082,4.2775372,,15.399200500000001,10.0467377,14.6958552
134,93,Np,7.6072771,-4.191,227.034975012,15.181715700000002,6.3555639,7.8164881,-9.601,-0.7435524,-11.122,8.3091764,2.0387502,,15.917824300000001,11.7003831,14.3630695
133,94,Pu,7.585,-5.41,227.039474,15.673,5.18,8.3,,2.152,-14.271,6.931,3.336,,15.863,9.602,16.674
143,85,At,7.596,6.6370000000000005,228.04496,8.923,,2.3850000000000002,8.496,,0.923,3.622,7.69,12.985,15.042,12.164,
142,86,Rn,7.6216457,1.8592451,228.037835415,9.6463634,16.883,2.908,6.3032721,-14.326,-2.5102968999999997,5.7136863,9.476,8.472566800000001,11.294,9.808,6.3100000000000005
141,87,Fr,7.6263689,4.444027,228.035839433,10.2789544,15.854000000000001,3.2482873,4.4895673,-11.335,-1.8645606000000001,4.369542,6.7905844,4.4606224,15.3478346,11.7141333,8.731
140,88,Ra,7.6424289,0.0455402,228.031068574,10.870017599999999,14.384941600000001,4.0701799,2.1692947,-11.2346114,-4.9806387999999995,6.3085876,8.031222,-0.2798066,12.130461799999999,9.9836475,8.0524533
139,89,Ac,7.6391973,2.1237545,228.031019685,11.5571831,13.2038276,4.721123700000001,-0.0289448,-8.076762200000001,-4.9814231,5.026179,5.5717809,-4.931,15.9378853,11.7656656,10.7204542
138,90,Th,7.6450807,-2.1526993,228.028739741,12.569385800000001,11.4746183,5.5201511000000005,-2.4491012999999997,-7.6955354,-8.1307892,7.1051775,6.367586500000001,-9.336909400000001,13.172505600000001,9.9976497,10.4242582
137,91,Pa,7.6322076,-0.296402,228.031050758,13.252637000000002,9.963544200000001,6.2645352,-4.902,-4.214887200000001,-8.192752800000001,5.9780899000000005,4.1701312,-13.926,16.436756600000002,11.4774612,12.932696
136,92,U,7.6274763000000005,-4.605,228.031368959,14.251432800000002,8.555590500000001,6.7995044,-6.8878081,-3.8737292,-11.4303355,7.8963508000000004,4.8993409,,13.8972082,9.727416,12.5562103
135,93,Np,7.604,-2.283,228.036313,15.134,6.7860000000000005,7.538,-9.024000000000001,-0.294,-11.016,6.825,2.509,,17.207,11.317,15.115
134,94,Pu,7.5904039,-6.742,228.038763325,15.664,5.7989307,7.9402027,,-0.2261957,-14.143,8.733,3.7601805,,14.001739200000001,9.3537662,14.3822101
144,85,At,7.585,5.527,229.048191,8.683,,,9.221,,1.575,5.062,,14.200000000000001,13.32,12.205,
143,86,Rn,7.6056227,3.6941465,229.042257272,9.6660708,17.496,2.358,6.8004372,,-2.0931393,3.9523845000000004,9.807,9.7768828,12.643,9.566,7.46
142,87,Fr,7.618338,3.1062907,229.038291443,10.156827799999999,16.34,2.944,4.9783172,-13.501,-1.3432588,5.787285799999999,6.864184000000001,5.7714052,13.4932259,11.785115,6.655
141,88,Ra,7.6284862,1.8720265999999999,229.034956703,10.7581371,14.901813899999999,3.6029038,2.9764456,-9.9704746,-4.4040093,4.4495495,8.1112295,1.3513429000000001,13.5903247,9.9054785,9.4611713
140,89,Ac,7.6332446,1.1044191,229.032947,11.3022148,13.5704511,4.4444184,0.793088,-9.9832561,-4.1522814,6.2760358,5.5392291,-3.1114413,14.2232794,11.8864157,8.8157989
139,90,Th,7.634651,-0.311331,229.031761357,12.3618779,12.1698888,5.1675578,-1.6251027,-6.6436481,-7.4093997,5.2567004,6.5981079000000005,-7.8094066,14.446809300000002,10.1403714,11.5643437
138,91,Pa,7.629875200000001,-1.3137716000000002,229.032095585,13.076158600000001,10.5306088,5.8346274000000005,-3.9045293,-6.2867768,-7.3944707,7.0980687,4.1630224,-12.283565500000002,14.8028963,11.5632542,11.2340495
137,92,U,7.6207218,-2.5907577,229.033505976,13.977049800000001,9.1720813,6.4755112,-6.1843039,-2.8492507000000002,-10.686,6.080699,5.00195,,15.0910562,10.0410754,13.6593728
136,93,Np,7.605992100000001,-3.5935462000000005,229.036287269,14.920276900000001,7.6069352,7.0198216,-8.3790362,-2.4111923,-10.3777494,8.095,2.7075944,,15.467151,11.336635200000002,13.4141801
135,94,Pu,7.5868834,-4.7854899,229.040145099,15.518,6.2280519000000005,7.598006900000001,,0.8859519,-13.526,6.7842032,3.719,,15.5267125,9.442102199999999,15.712528500000001
134,95,Am,7.5625697,,229.045282534,16.142,4.9765467,8.1373999,,1.066,,8.741,1.2163663,,16.121,11.415000000000001,15.009939200000002
144,86,Rn,7.595,2.6830000000000003,230.045271,9.216000000000001,,2.196,7.6530000000000005,,-1.57,5.264,10.009,11.307,11.001,9.603,5.5360000000000005
143,87,Fr,7.6037052,4.970462700000001,230.042390787,10.0400888,16.971,2.402,5.648382300000001,-12.692,-1.1465121999999999,4.2528029,7.1646024,7.3132256,14.9541093,11.4649892,7.703
142,88,Ra,7.6219144,0.6779196,230.037054776,10.5665244,15.3051026,3.3441964,3.6537941000000003,-12.1350651,-4.2449484,6.116974900000001,8.440918600000002,2.9012891,11.842891700000001,9.697916,7.2768735
141,89,Ac,7.6214604,2.9758744999999998,230.036327,11.1989038,14.1237771,3.8929309,1.6648432,-9.1188382,-3.8184489,4.922868,6.0125476,-1.3982292,15.608999100000002,11.524977699999999,9.8023433
140,90,Th,7.6309974,-1.3110313000000002,230.033132267,12.0510239,12.6556246,4.7700202,-0.7525051,-8.9884221,-7.1056545,6.794323500000001,7.116395499999999,-6.069658,12.6786648,9.877051999999999,9.331450199999999
139,91,Pa,7.621895800000001,0.5585262000000001,230.034539717,12.8926919,11.299053,5.4394263,-3.0630724000000003,-5.8053642000000005,-7.1083949,5.7946232,4.7009452000000005,-10.698,16.1134506,11.2328393,11.9704303
138,92,U,7.6209227,-3.6215986,230.033940114,13.7476201,9.7338248,5.9924517999999996,-5.317153,-5.259471400000001,-10.2576788,7.6669211,5.5708024,,13.4022251,9.6487014,11.45666
137,93,Np,7.6017751,-1.6955543,230.03782806,14.731,8.2649255,6.7780999,-7.635,-1.9492038,-10.229626399999999,6.6360801,3.2629755,,16.7274217,11.0556371,14.052647
136,94,Pu,7.591001599999999,-5.94,230.039648313,15.3182752,6.8657732,7.1784564,,-1.5674211,-13.319562,8.534072,4.1581788,,13.818,9.2172067,13.5335384
135,95,Am,7.562,,230.046025,16.121,5.531,7.63,,1.7810000000000001,,7.38,1.812,,17.475,10.966000000000001,15.939
145,86,Rn,7.579,4.469,231.049973,8.955,,1.844,8.333,,-1.0090000000000001,3.6910000000000003,,12.734,12.371,9.534,
144,87,Fr,7.5945009,3.8640868,231.045175353,9.7303146,17.387,2.225,6.3177219,,-0.507049,5.4775117,7.378,8.6562371,13.428982,11.7011638,5.847
143,88,Ra,7.6078418,2.4536351,231.041027085,10.4881107,15.7238539,2.9057377,4.4006776,-11.242,-3.6932161999999997,4.3711358,8.5592515,4.4105365,13.2590418,9.696322200000001,8.619424
142,89,Ac,7.6150768,1.9470425,231.038393,11.0697192,14.483342500000001,3.6554921,2.3385152,-11.0128866,-3.1709767,6.1468512,6.0424239,0.1391667,13.9116973,11.6867141,8.0250341
141,90,Th,7.6201188,0.3914727,231.036302764,11.9123427,13.3240943,4.213431,0.0098589,-7.9894663,-6.429050500000001,5.1180192,7.3115467,-4.4927663,13.8366814,9.785211799999999,10.522018599999999
140,91,Pa,7.6184267000000006,-0.38161380000000006,231.0358825,12.6151464,11.8435404,5.1499071,-2.1993485,-7.7030194000000005,-6.261997,6.820523199999999,4.727144900000001,-8.986,14.5496278,11.5174936,10.176086100000001
139,92,U,7.6133879,-1.8177347,231.03629218,13.5473043,10.357507600000002,5.5762769,-4.502625200000001,-4.3455311000000005,-9.5019818,5.880383200000001,5.6565624,-13.464,14.6199105,9.7464081,12.681454400000002
138,93,Np,7.6021321,-2.6848905,231.038243598,14.3203272,8.8511039,6.368399900000001,-6.7860000000000005,-3.8388277,-9.3798014,7.684247099999999,3.2803015,,15.123873600000001,11.2677408,12.3464898
137,94,Pu,7.5871224,-4.101,231.041125946,15.228983000000001,7.4799851,6.838627499999999,-8.961,-0.5954109999999999,-12.635,6.6949109,4.217009600000001,,15.2180064,9.347,14.734978300000002
136,95,Am,7.566,-4.86,231.045529,15.913,5.969,7.406000000000001,,-0.116,,8.533,1.811,,15.726,11.166,14.231
135,96,Cm,7.542,,231.050746,,4.703,8.075,,3.048,,,2.891,,15.8,9.284,16.808
145,87,Fr,7.579348100000001,5.5758791,232.049461219,9.556570299999999,,1.768,6.9184113,,-0.21497180000000002,4.0790586,7.766,10.1262856,14.614,11.574489600000001,6.83
144,88,Ra,7.6000099,1.3425322000000002,232.043475267,10.1619867,16.251,2.8285731000000003,5.050245299999999,-13.342,-3.3372158,5.790850900000001,8.872590700000002,5.887510000000001,11.7209938,9.692757100000001,6.7809576
143,89,Ac,7.602424500000001,3.7077131,232.042034,10.8265993,14.9102876,3.345286,3.2078743,-10.2151229,-2.7327055999999996,4.679748,6.3510361,1.795,15.348924199999999,11.4565155,9.1325719
142,90,Th,7.6150338,-0.4998388,232.038053606,11.558437900000001,13.647538,4.0815999000000005,0.8372647,-10.058749200000001,-6.0489459,6.4404187,7.6051141,-2.9142047,12.319130800000002,9.620829,8.5311494
141,91,Pa,7.6095072,1.3371034,232.038590205,12.3696304,12.4697796,4.6269789,-1.413,-7.105275400000001,-5.930720999999999,5.549107200000001,5.1582329,-7.473,15.794844,11.2250868,10.903014800000001
140,92,U,7.6118984,-2.75,232.037154765,13.1482076,10.831008599999999,5.41363,-3.7514694,-6.4953364,-9.0855592,7.2678244,6.1038635999999995,-11.723,13.146709300000001,9.5766523,10.670330400000001
139,93,Np,7.597,-1.0010000000000001,232.040107,14.02,9.392,6.011,-6.0600000000000005,-3.354,-9.02,6.336,3.735,,16.455000000000002,11.013,13.109
138,94,Pu,7.588983900000001,-5.059,232.041182133,14.7138912,7.8320442,6.715998,-7.972,-2.7340081,-12.120000000000001,8.0189803,4.5517428,,13.8351063,9.4235924,12.7966971
137,95,Am,7.564,-2.9130000000000003,232.046613,15.595,6.3950000000000005,7.17,,0.507,-11.921,7.062,2.178,,17.198,10.889,15.265
136,96,Cm,7.548,,232.04974,,5.1770000000000005,7.8,,0.735,,9.008000000000001,3.366,,14.172,9.016,14.584
146,87,Fr,7.5692398,4.585990600000001,233.052517833,9.303158600000001,,1.606,7.612015,,0.351779,5.224100000000001,,11.430642,13.081,11.614,
145,88,Ra,7.5855644,3.0260244,233.04759457,10.025062400000001,16.793,2.546746,5.6024194,,-2.8916793,4.234211500000001,9.027743599999999,7.4149507,12.964293900000001,9.7113485,7.811
144,89,Ac,7.5951939,2.576395,233.044346,10.5974517,15.350479600000002,3.2148682,3.818627,-12.053768,-2.2099906000000002,5.917703700000001,6.4778889,3.3595066000000005,13.8023563,11.6557868,7.4676711
143,90,Th,7.6028937,1.242232,233.041580126,11.2268043,14.0627879,3.7447638000000003,1.8125313,-9.054283999999999,-5.2862244,4.7863856,7.7117517,-1.3201932,13.679596400000001,9.7573114,9.8617388
142,91,Pa,7.6048675,0.5702993000000001,233.040246535,12.0775636,12.8513848,4.3745584,-0.4591205,-8.9539837,-5.191353,6.5284564000000005,5.2462706,-5.796,14.3844068,11.490953900000001,9.2974264
141,92,U,7.6039574000000005,-1.0294197,233.039634294,13.0294766,11.474641600000002,4.9086781,-3.1327244999999997,-5.8165699,-8.512,5.7616522,6.3164087,-10.3742284,14.2055803,9.609623299999999,11.7030016
140,93,Np,7.5961816,-2.1033047000000002,233.040739421,13.8177917,10.053749100000001,5.6267668,-5.336,-5.286988900000001,-8.4837019,7.482,3.9498855,-14.823,14.853386200000001,11.1975693,11.421389999999999
139,94,Pu,7.5837968,-3.233,233.042997411,14.3993774,8.3320582,6.4162999,-7.2415039,-1.8465808,-11.439,6.380397100000001,4.597,,15.1389562,9.6792754,14.083221
138,95,Am,7.567,-4.008,233.046468,15.268,6.917,7.059,-9.486,-1.363,-11.119,8.206,2.365,,15.687000000000001,11.217,13.695
137,96,Cm,7.5460020000000005,-5.478,233.050771485,16.119,5.593179500000001,7.4734999,,1.6434538,,7.111,3.415,,15.594000000000001,9.286,16.007572
136,97,Bk,7.519,,233.056652,,4.2170000000000005,8.166,,2.063,,,0.85,,16.212,,15.546000000000001
146,88,Ra,7.5765439,2.0894348000000003,234.0503821,9.7089621,,2.336,6.3176711999999995,,-2.4487262000000003,5.4747506,9.2783941,8.7856699,11.568602,9.7141096,6.027
145,89,Ac,7.5821297,4.2282364,234.048139,10.455864600000002,15.8095819,2.9295101,4.5023246,-11.367828900000001,-1.9617659,4.5381609,6.7818383,4.886389,15.0550463,11.4887616,8.4070219
144,90,Th,7.5968557,0.2740882,234.043599801,10.9763879,14.461939300000001,3.6717365,2.4679987000000003,-11.010074699999999,-4.9477703,6.190002300000001,7.9840503,0.2629718,12.1693421,9.7141603,8.0428722
143,91,Pa,7.5946837,2.1939105,234.043305555,11.7503149,13.393495300000001,4.0755678,0.3840643,-8.2581386,-4.6515591999999994,5.221858500000001,5.6817435,-4.123,15.602967000000001,11.3871146,10.2224191
142,92,U,7.600716,-1.8098462,234.040950296,12.607121900000001,11.8796926,4.8575319,-2.2050269,-7.875654000000001,-7.8748895,6.8454697,6.6334219999999995,-8.577451499999999,12.9092178,9.584676799999999,9.9755511
141,93,Np,7.5896382000000004,-0.3951807,234.042893245,13.547,10.5696852,5.3563467000000005,-4.507,-4.8235757999999995,-8.168348,6.0650433,4.2532766,-13.441,16.0561674,11.012909200000001,12.176870000000001
140,94,Pu,7.5846061,-4.112,234.043317489,14.153564399999999,8.8374011,6.3100537,-6.3724246,-3.8580958,-11.006,7.7731673,4.8875155999999995,,13.701,9.5903552,12.190436900000002
139,95,Am,7.564,-2.261,234.047731,15.101,7.476,6.8,-8.934000000000001,-0.776,-10.903,6.8950000000000005,2.879,,16.811,11.017,14.484
138,96,Cm,7.5506868,-6.673,234.050158568,15.753,6.216445800000001,7.3653254,,-0.6183957,-14.120000000000001,8.6422466,3.851,,14.013,9.176,14.060236300000001
137,97,Bk,7.519,,234.057322,,4.602,8.0985999,,2.821,,7.447,1.187,,17.773,10.99,16.632
147,88,Ra,7.561,3.773,235.05489,9.347,,2.1550000000000002,7.112,,-1.7830000000000001,3.872,,10.211,12.92,9.921,
146,89,Ac,7.5735051,3.3394064,235.05084,10.0935134,16.1408344,2.8516694000000005,5.0682594,,-1.3271161,5.5553525,6.8624403,6.3141159,13.7339053,11.724260000000001,6.930728
145,90,Th,7.5843862,1.7288531,235.047255,10.856524799999999,14.8942502,3.3763498,3.0989714,-10.201846600000001,-4.392434199999999,4.6665225,8.1124119,1.8354074,13.4205234,9.7273859,9.1672007
144,91,Pa,7.5884139,1.3701184000000002,235.045399,11.3431458,13.5970788,4.1011318,1.2458565000000001,-9.8412649,-3.9273768000000002,6.1212873,5.6130285,-2.3357015000000003,14.2680653,11.7062459,8.780879800000001