N,Z,element,be_per_a,beta_decay_energy,atomic_mass,s2n,s2p,qa,q2b,qep,qbn,s1n,s1p,q4b,qda,qpa,qna
117,79,Au,7.914854999999999,0.687235,195.966571221,15.0694,13.184940000000001,1.27194,-3.64211,-6.73543,-8.196629999999999,6.64299,5.63383,-13.12968,14.33217,8.20496,9.043930000000001
116,80,Hg,7.914369,-4.329349000000001,195.965833444,15.78463,11.64381,2.0376,-6.47763,-6.32106,-11.74201,8.883870000000002,6.54788,-18.3529,11.0968,6.4429300000000005,8.30007
115,81,Tl,7.888289,-2.14828,195.970481192,16.70173,9.8626,2.85061,-9.48756,-2.2185300000000003,-11.86022,7.41266,3.77217,-23.58192,15.39816,8.42964,11.55463
114,82,Pb,7.873337,-7.339281,195.972787466,17.283009999999997,7.742310000000001,4.23833,-11.87527,-1.62389,-15.39407,9.71194,4.48203,-27.3193,12.29999,6.99296,11.36027
113,83,Bi,7.8319,-4.535989,195.980666509,18.12285,5.64948,5.4383,-14.09435,2.85725,-15.024090000000001,8.05479,1.59031,,16.90972,9.04951,15.11458
112,84,Po,7.804766,-9.558365,195.985536094,18.61102,3.8430400000000002,6.658060000000001,-15.444030000000001,2.94568,-18.074060000000003,10.488100000000001,2.73645,,13.26658,7.27557,14.36785
111,85,At,7.752007,-5.885668,195.995797421,19.33715,2.46381,7.19494,,6.82191,-17.036270000000002,8.5157,0.14739,,17.80078,9.274700000000001,17.61628
110,86,Rn,7.717987,,196.002115945,19.89514,1.6023,7.61674,,5.73828,,11.15061,1.84769,,13.401959999999999,6.90237,15.94271
123,74,W,7.854,5.363,196.983747,10.272,,,10.169,,-0.669,4.33,,15.280000000000001,,7.024,
122,75,Re,7.878,4.807,196.97799,11.066,,-2.057,7.7620000000000005,,-0.296,6.031,8.911,10.638,11.218,8.888,2.444
121,76,Os,7.898000000000001,2.955,196.97283,11.94,18.877,-1.447,5.111,-13.717,-3.9450000000000003,5.103,10.056000000000001,5.232,10.981,6.792,4.864
120,77,Ir,7.908999,2.155645,196.969657233,12.71449,17.263,-0.45738,2.87563,-13.011000000000001,-3.69091,6.89993,7.27597,0.07754000000000001,11.958290000000002,9.03506,4.619
119,78,Pt,7.915971,0.7199880000000001,196.967343053,13.768540000000002,15.4861,0.54962,0.12048,-9.43162,-7.35236,5.84656,8.27323,-5.6743500000000004,11.98331,6.9760100000000005,7.66176
118,79,Au,7.915654000000001,-0.5995090000000001,196.966570114,14.715340000000001,14.02543,0.9715800000000001,-2.79809,-8.993219999999999,-7.38511,8.07235,5.7842,-11.452549999999999,12.36492,8.48439,7.0383700000000005
117,80,Hg,7.90864,-2.1985799999999998,196.967213713,15.66947,12.32432,1.5144600000000001,-5.79483,-5.18469,-11.11495,6.78561,6.69049,-17.182240000000004,12.73761,6.535760000000001,9.86624
116,81,Tl,7.893508,-3.596247,196.969573986,16.329040000000003,10.35256,2.6382600000000003,-8.654459999999998,-4.49191,-11.06465,8.91637,3.80468,-21.986400000000003,13.38255,8.70635,9.51669
115,82,Pb,7.871282,-5.05821,196.973434717,17.18034,8.30995,3.8918600000000003,-11.387410000000001,-0.20843,-14.807690000000001,7.46841,4.53778,-26.25575,14.12065,7.05615,13.084950000000001
114,83,Bi,7.841634,-6.329202,196.978864929,17.80426,6.10988,5.36511,-13.331940000000001,0.52043,-14.28547,9.74948,1.62785,-29.94116,14.73131,9.3848,12.896700000000001
113,84,Po,7.805535,-7.002739,196.985659607,18.44437,4.2282399999999996,6.41158,-14.86834,4.701350000000001,-17.51463,7.956270000000001,2.63793,,15.37838,7.53488,16.49635
112,85,At,7.766017,-7.865603,196.993177357,19.02759,2.90763,7.10439,-16.60922,4.36481,-16.397560000000002,10.51189,0.17118,,15.41181,9.513459999999998,15.31996
111,86,Rn,7.722118000000001,-8.743618000000001,197.00162143,19.682560000000002,2.01133,7.41075,,7.69442,,8.53196,1.8639400000000002,,15.691450000000001,7.09457,18.16141
110,87,Fr,7.673763,,197.01100809,,0.85368,7.896380000000001,,6.8796800000000005,,,-0.9940100000000001,,15.9145,9.394530000000001,16.620540000000002
123,75,Re,7.862,6.697,197.9816,10.74,,-2.265,8.682,,0.098,4.7090000000000005,9.289,12.441,12.452,8.734,
122,76,Os,7.891,1.984,197.97441,11.702,19.534,-1.736,6.067,-15.986,-3.644,6.6000000000000005,10.624,7.117,9.416,6.606,2.819
121,77,Ir,7.897,4.083,197.97228,12.528,17.857,-1.0090000000000001,3.7600000000000002,-12.608,-3.473,5.628,7.801,1.708,13.167,8.555,5.404
120,78,Pt,7.91415,-0.323219,197.967896734,13.402120000000002,16.20484,0.10619,1.05031,-11.884,-6.83558,7.5555699999999995,8.92886,-3.83651,10.2423,6.652310000000001,5.2540000000000004
119,79,Au,7.908567000000001,1.37353,197.968243724,14.58471,14.72323,0.52601,-2.0520300000000002,-8.60565,-7.11187,6.51236,6.45,-10.211290000000002,13.774540000000002,8.07712,7.7578700000000005
118,80,Hg,7.9115519999999995,-3.425564,197.966769179,15.271,12.88774,1.3808399999999998,-4.88682,-7.82353,-10.68398,8.4854,7.10354,-15.48096,10.8952,6.47678,7.485939999999999
117,81,Tl,7.890300000000001,-1.461257,197.970446673,16.17479,10.967979999999999,2.25827,-8.15926,-3.6779800000000002,-10.85466,7.25841,4.27749,-20.81423,15.008000000000001,8.348700000000001,10.684690000000002
116,82,Pb,7.8789690000000006,-6.698003,197.972015397,16.861810000000002,8.81949,3.69154,-10.59414,-2.81623,-14.451620000000002,9.39341,5.014810000000001,-24.837130000000002,12.13991,6.951810000000001,10.5923
115,83,Bi,7.841189000000001,-3.896134,197.979206,17.50309,6.45084,5.14309,-12.65497,1.6831900000000002,-14.08281,7.75361,1.91306,-28.94351,16.68963,9.20226,14.43216
114,84,Po,7.8175609999999995,-8.758839,197.983388672,18.14294,4.702979999999999,6.309670000000001,-14.24299,1.98308,-17.18942,10.18668,3.07513,,13.24648,7.41626,13.88074
113,85,At,7.769373,-5.4841549999999994,197.992791673,18.94247,3.28342,6.88938,-16.28854,5.6837100000000005,-16.29618,8.43058,0.64549,,17.469330000000003,9.2058,16.95745
112,86,Rn,7.737724,-10.804382,197.998679156,19.34398,2.3352600000000003,7.34938,,4.83866,-19.555650000000004,10.81203,2.16408,,13.39512,7.10399,15.472299999999999
111,87,Fr,7.6792050000000005,,198.010278138,,1.08924,7.86927,,8.6403,,8.75126,-0.7747,,18.31384,9.387799999999999,18.690720000000002
124,75,Re,7.851,5.623,198.984047,10.501,,,9.538,,0.905,5.792,,14.234,10.99,8.884,
123,76,Os,7.875,3.915,198.97801,11.317,19.922,-1.899,6.905,,-2.734,4.718,10.633000000000001,9.063,10.729000000000001,6.923,4.043
122,77,Ir,7.891206,2.990167,198.973807115,12.277040000000001,18.474,-1.245,4.69523,-14.548,-2.56583,6.649,7.851,3.66088,11.621,8.74265,3.79
121,78,Pt,7.9023,1.705059,198.970597038,13.11157,16.658,-0.302,2.15739,-10.841000000000001,-5.87922,5.556,8.857,-2.15688,11.58623,6.91087,6.53482
120,79,Au,7.906937,0.45232700000000003,198.968766582,14.096639999999999,15.40758,0.17359,-1.0343499999999999,-10.562,-6.21075,7.58428,6.47871,-8.29618,12.03681,8.41482,5.98815
119,80,Hg,7.905279000000001,-1.486674,198.968280989,15.14847,13.70426,0.82287,-4.31426,-6.93104,-10.08864,6.66307,7.25426,-14.33759,12.30448,6.45669,8.74484
118,81,Tl,7.893877000000001,-2.827589,198.969877,15.86038,11.4976,2.0827199999999997,-7.26183,-5.76758,-10.06322,8.60196,4.39405,-19.23602,13.19164,8.630600000000001,8.72571
117,82,Pb,7.875736,-4.434239,198.972912542,16.62904,9.26952,3.3566700000000003,-10.02332,-1.56646,-13.93364,7.2356300000000005,4.99203,-23.73235,13.82065,7.12884,12.240540000000001
116,83,Bi,7.849522,-5.589083,198.977672893,17.25301,7.03386,4.9327700000000005,-11.97419,-0.55779,-13.39553,9.4994,2.01905,-27.56896,14.65864,9.4148,12.34543
115,84,Po,7.817505000000001,-6.385111,198.983673021,17.99313,5.0410200000000005,6.07429,-13.70903,3.57004,-16.56529,7.80645,3.12797,,15.18951,7.6646,15.78623
114,85,At,7.781488,-7.323921,198.990527719,18.61076,3.71412,6.777270000000001,-15.59477,3.25714,-15.66433,10.18018,0.6389900000000001,,15.245420000000001,9.51372,14.83206
113,86,Rn,7.740753,-8.270843999999999,198.998390273,19.15244,2.7194000000000003,7.13189,,6.6849300000000005,-19.14479,8.34041,2.0739099999999997,,15.56661,7.27928,17.61999
112,87,Fr,7.695259,,199.007269389,19.62521,1.4513,7.816770000000001,,6.19693,,10.87395,-0.71278,,15.97185,9.66446,16.33247
124,76,Os,7.868,2.832,199.97984,11.085,,-2.323,7.82,,-2.452,6.367,11.208,10.724,9.071,6.587,2.007
123,77,Ir,7.878,4.988,199.9768,11.932,19.049,-1.493,5.6290000000000004,-14.040000000000001,-2.293,5.283,8.416,5.437,12.937,8.562,4.538
122,78,Pt,7.899198,0.6409320000000001,199.971444625,12.837790000000002,17.34,-0.74697,2.90411,-13.405000000000001,-5.57674,7.28179,9.48962,-0.34811000000000003,9.933,6.529,4.356
121,79,Au,7.898491,2.263178,199.970756556,13.801950000000001,15.997,-0.22951,-0.19286000000000003,-10.13055,-5.76534,6.21767,7.14038,-6.86934,13.374709999999999,8.04371,6.67041
120,80,Hg,7.905895000000001,-2.4560400000000002,199.968326934,14.69159,14.177209999999999,0.7163200000000001,-3.25222,-9.403559999999999,-9.51519,8.02852,7.6985,-12.56151,10.78832,6.500520000000001,6.56288
119,81,Tl,7.889703000000001,-0.7961760000000001,199.970963602,15.66112,12.04439,1.66656,-6.67648,-5.24246,-9.88674,7.05915,4.79013,-18.05934,14.61789,8.35705,9.73891
118,82,Pb,7.881810000000001,-5.880299,199.971818332,16.3262,9.874690000000001,3.1499699999999997,-9.30929,-3.99396,-13.52481,9.09057,5.480630000000001,-22.246290000000002,11.9885,6.95465,9.93558
117,83,Bi,7.848497,-3.4289940000000003,199.978131093,17.143900000000002,7.41995,4.70092,-11.38286,0.39967,-13.233590000000001,7.64451,2.4279200000000003,-26.50325,16.40754,9.238700000000001,13.6173
116,84,Po,7.82744,-7.953869,199.98181227,17.611040000000003,5.45221,5.9816400000000005,-12.937,1.0010700000000001,-16.189709999999998,9.8046,3.43317,,13.138530000000001,7.60949,13.450040000000001
115,85,At,7.783759,-4.9831270000000005,199.9903511,18.41601,4.196350000000001,6.596220000000001,-15.12039,4.5207,-15.55976,8.23584,1.06838,,17.196270000000002,9.23415,16.3457
114,86,Rn,7.754932,-10.137263,199.995700707,18.91704,3.10935,7.04336,,3.91475,-18.84747,10.57663,2.4703600000000003,,13.42055,7.21454,14.99963
113,87,Fr,7.700334,,200.006583507,19.58416,1.73093,7.622260000000001,,7.6669,,8.71021,-0.34298,,18.07366,9.4862,18.13415
125,76,Os,7.851,4.657,200.98364,10.898,,-2.525,8.501,,-1.7,4.532,,12.423,10.332,6.764,
124,77,Ir,7.871,3.844,200.97864,11.641,19.615000000000002,-1.819,6.5040000000000004,,-1.369,6.357,8.407,7.284,11.298,8.804,2.8890000000000002
123,78,Pt,7.885833,2.66,200.974513293,12.494670000000001,17.835,-0.857,3.92183,-12.251,-4.57194,5.21287,9.419,1.53032,11.36861,6.944,5.743
122,79,Au,7.895175,1.261827,200.971657665,13.449610000000002,16.58014,-0.56152,0.78012,-12.079,-4.9687600000000005,7.23194,7.090520000000001,-4.98428,11.698770000000001,8.36734,5.067
121,80,Hg,7.89756,-0.481704,200.970303038,14.259110000000002,14.851799999999999,0.33229000000000003,-2.3915100000000002,-8.352350000000001,-8.68663,6.23059,7.71142,-11.14136,12.14201,6.78229,7.88786
120,81,Tl,7.891271,-1.909802,200.970820168,15.26408,12.665040000000001,1.5339800000000001,-5.7644,-7.22972,-9.001100000000001,8.204930000000001,4.96654,-16.3914,13.07604,8.637530000000002,8.04634
119,82,Pb,7.877877000000001,-3.854603,200.972870425,16.18187,10.30291,2.8442800000000004,-8.74985,-3.05674,-12.9716,7.0913,5.51278,-21.19871,13.49916,7.121770000000001,11.32968
118,83,Bi,7.854808,-4.895248,200.977008512,16.7615,7.9349799999999995,4.5003,-10.627,-1.6581700000000001,-12.54599,9.117,2.45435,-25.00501,14.52618,9.51511,11.758709999999999
117,84,Po,7.826561,-5.731747,200.98226377700001,17.45534,5.867319999999999,5.799300000000001,-12.448860000000002,2.4409,-15.604610000000001,7.65074,3.4394,-28.457990000000002,14.98719,7.712359999999999,15.19271
116,85,At,7.7941530000000006,-6.717113,200.988417061,18.108700000000002,4.56981,6.472840000000001,-14.37801,2.29235,-14.85599,9.872860000000001,1.1366500000000002,,15.129850000000001,9.54797,14.226450000000002
115,86,Rn,7.756842,-7.660902,200.995628179,18.71551,3.44178,6.86075,-16.00913,5.58047,-18.276139999999998,8.13888,2.3734,,15.46185,7.50624,17.047430000000002
114,87,Fr,7.714836,-8.348224,201.003852496,19.32545,2.16599,7.51891,,5.2875000000000005,,10.61524,-0.30437000000000003,,15.79883,9.68299,15.94949
113,88,Ra,7.66941,,201.012814683,,1.14169,8.00153,,8.652600000000001,,,1.4846700000000002,,15.876209999999999,7.22683,18.813560000000003
126,76,Os,7.8420000000000005,3.689,201.98595,10.451,,,9.605,,-1.262,5.92,,14.258000000000001,,6.6370000000000005,
125,77,Ir,7.856,5.916,201.98199,11.308,,-2.062,7.577,,-1.107,4.9510000000000005,8.826,9.204,12.714,8.571,3.73
124,78,Pt,7.88156,1.660854,201.975639,12.2356,18.491,-1.28,4.6532,-14.742,-4.36273,7.02273,10.084,3.24849,9.629,6.57044,3.438
123,79,Au,7.885909,2.992345,201.973856,13.25552,17.32,-0.9570000000000001,1.62724,-11.745000000000001,-4.76175,6.02358,7.90124,-3.6115,12.95699,7.899760000000001,5.69194
122,80,Hg,7.896850000000001,-1.365108,201.970643585,13.98469,15.324100000000001,0.13376,-1.4047100000000001,-10.89358,-8.2358,7.7541,8.23358,-9.403709999999998,10.60557,6.61247,5.689760000000001
121,81,Tl,7.8862190000000005,-0.039602,201.972109089,15.07562,13.31806,1.17565,-5.238729999999999,-6.86847,-8.7805,6.8707,5.6066400000000005,-15.38948,14.233860000000002,8.42991,8.75993
120,82,Pb,7.88215,-5.19913,201.972151604,15.83219,11.01528,2.5887800000000003,-7.9990000000000006,-5.56704,-12.5955,8.74089,6.04875,-19.66598,11.81742,6.98284,9.25186
119,83,Bi,7.852539,-2.799868,201.9777331,16.513360000000002,8.272200000000002,4.36235,-10.15075,-0.84962,-12.291620000000002,7.39637,2.75942,-23.83772,16.22038,9.354379999999999,12.96431
118,84,Po,7.834805,-7.350884,201.980738881,17.142490000000002,6.2685,5.70096,-11.66698,0.04045000000000001,-15.2235,9.49175,3.81415,-27.01648,13.13995,7.72,12.93659
117,85,At,7.794541000000001,-4.316097,201.98863038,17.74547,4.79792,6.35384,-13.686969999999999,3.53673,-14.58972,7.87261,1.35852,,17.06184,9.48181,15.85324
116,86,Rn,7.7693010000000005,-9.370871,201.993263902,18.4125,3.91081,6.7738000000000005,-15.3495,2.95758,-17.93453,10.273629999999999,2.7741700000000002,,13.424059999999999,7.41279,14.58025
115,87,Fr,7.719037999999999,-5.978625,202.003323946,19.178900000000002,2.49381,7.38583,,6.5967,-16.91188,8.56366,0.12041,,17.81181,9.45974,17.56601
114,88,Ra,7.685568,,202.009742264,,1.4983199999999999,7.8803,,5.858210000000001,,10.93326,1.8026900000000001,,13.653170000000001,7.167520000000001,16.22071
127,76,Os,7.816,7.05,202.991798,8.544,,,11.986,,1.065,2.624,,17.629,,,
126,77,Ir,7.847,4.937,202.98423,10.936,,-2.254,8.454,,-0.069,5.985,8.891,11.072000000000001,11.26,8.953,
125,78,Pt,7.867,3.517,202.97893,12.028,18.965,-1.568,5.643,-13.828,-3.345,5.006,10.139,5.16,10.981,6.848,4.799
124,79,Au,7.880864,2.1258290000000004,202.975154498,12.88536,17.825,-1.16984,2.61794,-13.656,-3.86943,6.861770000000001,7.74028,-1.6186099999999999,11.30808,8.319780000000002,4.114
123,80,Hg,7.887482,0.49211200000000005,202.972872326,13.749360000000001,16.10649,-0.3055,-0.48271,-9.86611,-7.36037,5.99526,8.20526,-7.95838,11.842260000000001,6.83488,6.9763
122,81,Tl,7.886053,-0.97482,202.972344022,14.72317,13.938600000000001,0.9074500000000001,-4.23655,-8.697370000000001,-7.89208,7.85248,5.70502,-13.59882,12.61197,8.605950000000002,7.12512
121,82,Pb,7.877397,-3.261729,202.973390535,15.65816,11.70196,2.3346,-7.47567,-4.7302,-12.116389999999999,6.917260000000001,6.0953100000000004,-18.63286,13.10509,7.12473,10.36311
120,83,Bi,7.857475000000001,-4.213939000000001,202.976892145,16.25103,8.92193,4.109649999999999,-9.36227,-2.83358,-11.654530000000001,8.85466,2.87318,-22.40124,14.45701,9.590280000000002,11.1688
119,84,Po,7.832863000000001,-5.148332000000001,202.981415995,16.93234,6.61779,5.496,-11.15719,1.34075,-14.79147,7.44059,3.8583800000000004,-25.97261,14.81635,7.92392,14.58657
118,85,At,7.803648,-6.008858,202.986942957,17.51575,5.32406,6.21009,-13.038969999999999,1.28996,-13.95924,9.643139999999999,1.50991,,15.06943,9.64326,13.854600000000001
117,86,Rn,7.770193000000001,-7.0301160000000005,202.993393732,18.22401,4.21046,6.62987,-14.81542,4.49895,-17.32125,7.95038,2.85194,,15.346540000000001,7.69825,16.434459999999998
116,87,Fr,7.731707999999999,-7.785309000000001,203.000940872,18.85479,2.91209,7.27487,,4.17818,-16.26976,10.29114,0.13792,,15.65955,9.74524,15.51071
115,88,Ra,7.689503,,203.009298745,19.41771,1.84389,7.736260000000001,,7.647390000000001,,8.48445,1.7234800000000001,,15.78395,7.39328,18.31289
127,77,Ir,7.824,8.234,203.9896,9.054,,,10.963000000000001,,1.868,3.069,9.336,14.659,14.111,10.416,
126,78,Pt,7.86,2.728,203.98076,11.372,19.412,-1.568,6.768,-17.571,-2.85,6.367,10.521,7.188,9.565,6.839,2.964
125,79,Au,7.87,4.04,203.977831,12.44,18.452,-1.464,3.696,-13.249,-3.452,5.578,8.313,-0.004,12.753,7.955,4.893
124,80,Hg,7.8855450000000005,-0.34400000000000003,203.973494037,13.487459999999999,16.57596,-0.5159,0.41975,-12.353,-7.00009,7.4922,8.83568,-6.3488999999999995,10.37364,6.57462,4.69697
123,81,Tl,7.880023,0.7637480000000001,203.973863337,14.50856,14.571110000000001,0.46903,-3.70025,-8.49168,-7.6309,6.65608,6.365850000000001,-12.470709999999999,13.70999,8.18045,7.700970000000001
122,82,Pb,7.879932,-4.463996,203.97304342,15.311910000000001,12.34251,1.96846,-6.76865,-7.129600000000001,-11.656379999999999,8.39465,6.63749,-17.1397,11.58113,6.9350000000000005,8.19905
121,83,Bi,7.854215,-2.304652,203.977835717,16.04705,9.243620000000002,3.97642,-8.77046,-2.1734899999999997,-11.40632,7.1923900000000005,3.14831,-21.25321,16.00552,9.4892,12.18134
120,84,Po,7.839083,-6.4658109999999995,203.980309863,16.54226,6.9785699999999995,5.48489,-10.37105,-0.84366,-14.25,9.10167,4.105390000000001,-24.39803,13.111049999999999,7.93924,12.57619
119,85,At,7.803552,-3.90524,203.987251197,17.42734,5.71189,6.07041,-12.48274,2.36042,-13.79305,7.78419,1.85351,,16.77699,9.50981,15.1874
118,86,Rn,7.780574,-8.577503,203.991443644,17.838189999999997,4.606520000000001,6.54665,-14.02698,2.05172,-16.917930000000002,9.88781,3.09661,,13.33134,7.6833,14.19739
117,87,Fr,7.734692,-5.449477,204.000651974,18.63156,3.3799,7.1702900000000005,,5.4809,-16.12573,8.34042,0.5279600000000001,,17.59275,9.543690000000002,17.04315
116,88,Ra,7.704144,,204.006502228,19.160709999999998,2.24652,7.636640000000001,,4.9215100000000005,,10.676260000000001,2.1086,,13.671360000000002,7.332260000000001,15.77551
128,77,Ir,7.807,7.007000000000001,204.993602,7.413,,,12.81,,3.891,4.343,,17.861,12.391,11.992,
127,78,Pt,7.837,5.803,204.98608,9.482,19.904,-0.152,9.321,,-0.388,3.116,10.568,10.804,12.434000000000001,8.674,5.767
126,79,Au,7.861,3.5180000000000002,204.97985,11.769,18.658,-1.298,5.051,-16.371,-2.1510000000000002,6.191,8.137,2.295,11.568,8.787,3.653
125,80,Hg,7.874732,1.533135,204.976073125,13.16111,17.239,-0.97194,1.4825,-11.655,-6.01291,5.66891,8.927,-4.7663400000000005,11.5665,6.92929,6.05079
124,81,Tl,7.878394,-0.050636,204.974427237,14.20213,15.255379999999999,0.15492,-2.75637,-10.46,-6.7823,7.54605,6.4197,-10.848930000000001,12.1592,8.3885,6.17851
123,82,Pb,7.874331000000001,-2.705734,204.974481597,15.12632,13.07892,1.4673900000000002,-6.24884,-6.36906,-11.19566,6.73166,6.7130600000000005,-16.06045,12.70194,7.07403,9.22149
122,83,Bi,7.857316,-3.5431060000000003,204.977386323,15.68231,9.88107,3.6914200000000004,-8.09256,-4.00733,-10.79458,8.489930000000001,3.24358,-19.75469,14.432860000000002,9.74016,10.56211
121,84,Po,7.836216,-4.5494520000000005,204.981190004,16.35314,7.31278,5.32472,-9.81161,0.29952,-13.71728,7.25147,4.164470000000001,-23.36039,14.71424,8.08414,14.065620000000001
120,85,At,7.810207,-5.262161,204.986074041,16.95202,6.025060000000001,6.01957,-11.66213,0.38498000000000004,-13.07307,9.16783,1.9196700000000002,-27.07864,15.04975,9.83372,13.41594
119,86,Rn,7.780722,-6.399973,204.991723204,17.69872,4.97684,6.38648,-13.54878,3.3424899999999997,-16.38841,7.81091,3.12332,,15.16358,7.745,15.87823
118,87,Fr,7.745686,-7.148804,204.998593858,18.328860000000002,3.7252,7.05471,-15.41651,3.27665,-15.43792,9.98844,0.6285900000000001,,15.55469,9.82888,14.92732
117,88,Ra,7.706998,-8.267702,205.006268415,18.96537,2.5852500000000003,7.4864,,6.5202100000000005,,8.28911,2.05729,,15.67338,7.60681,17.76003
116,89,Ac,7.662851,,205.015144158,,1.3476700000000001,8.0932,,6.2104099999999995,,,-0.7609400000000001,,16.15577,9.89589,16.65686
128,78,Pt,7.822,4.583,205.98966,7.852,,1.031,11.314,,1.067,4.737,10.961,14.154,10.767,9.922,3.6550000000000002