N,Z,element,be_per_a,beta_decay_energy,atomic_mass,s2n,s2p,qa,q2b,qep,qbn,s1n,s1p,q4b,qda,qpa,qna
102,64,Gd,8.097226,3.4378515000000003,165.941630413,10.819874599999999,21.0235537,-2.4167885,8.2135445,-18.150000000000002,-1.8533947000000002,5.916462000000001,10.930793900000001,10.553218600000001,9.572027,7.066948000000001,1.8750877000000001
101,65,Tb,8.113223,4.775693,165.937939727,11.8464303,19.1545737,-1.5107496,5.2615614,-14.3686454,-2.267807,5.2912462,8.5719666,4.0777004,12.595717,8.4438684,4.4114434000000005
100,66,Dy,8.1372793,0.48586840000000003,165.93281281,12.7594579,17.4687251,-0.7286663999999999,2.3396741000000003,-13.3476595,-5.757771300000001,7.0435,9.284592199999999,-0.990764,10.2313199,6.8753383,4.4505225
99,67,Ho,8.1354933,1.8538057,165.932291209,14.2324579,15.5432977,0.384293,-1.183861,-9.7704606,-6.6203045000000005,6.2436397,6.7470213999999995,-7.0493521,13.6081168,8.174574,7.1718169
98,68,Er,8.1419479,-3.0376667000000004,165.930301067,15.1242076,13.534438,0.8321090000000001,-3.3304381,-8.600826999999999,-10.0654384,8.4741101,7.3150984,-11.0651556,10.7671796,6.3179374,7.103115300000001
97,69,Tm,8.1189357,-0.2927714,165.933562136,16.1201711,11.483902899999999,1.7291689,-5.865491100000001,-4.2774317,-9.6624081,7.027771700000001,4.6540965,-15.7886978,14.7669022,8.14499,10.1379511
96,70,Yb,8.1124591,-5.5727196999999995,165.933876439,16.7241719,10.2290755,2.3155881,-7.7347174999999995,-4.361325,-13.222777,9.3696367,5.9526533,-19.7062356,11.0260435,5.9987615,9.2201085
95,71,Lu,8.0741756,-2.1619978,165.939859,17.5212474,8.689986000000001,3.0315796,-9.923206700000001,-0.37993360000000004,-12.4567923,7.6500573,3.0145700000000004,-24.1836517,15.7019909,8.1369466,12.353828100000001
94,72,Hf,8.0564386,-7.7612089,165.94218,18.183269,7.4247604,3.5372584000000002,-11.971518099999999,-0.8525722,-16.0824355,10.2947945,4.7057125,-28.4274629,11.494193600000001,5.7964808,11.0812914
93,73,Ta,8.0049714,-4.2103092,165.950512,18.9576113,6.0333467,4.309063,-14.260445,3.0554962999999997,-15.3077821,8.3212266,1.7512386,-32.792,16.431383,8.0355953,14.3400367
92,74,W,7.9748950999999995,-10.0501358,165.955031952,19.7945521,4.647057,4.8560389,-16.4559448,2.4590706,-19.2994355,11.097472900000001,3.3285704000000003,-37.105000000000004,12.106141,5.511218,13.028251500000001
91,75,Re,7.9096392,-6.4058090000000005,165.965821216,20.50753,3.1324723,5.5191536,-18.532,6.7215654,-18.162,9.2492997,0.26499,,17.1090269,7.9351587,16.3437009
90,76,Os,7.8663371,-12.126,165.972698135,21.149438999999997,1.7739132,6.1427746,-20.649,6.1408190000000005,-21.908,11.756,2.0611437,,12.7517221,5.4347818,15.123314700000002
89,77,Ir,7.789000000000001,-8.523,165.985716,21.965,0.41100000000000003,6.7223507,,10.065,-21.059,9.782,-1.1519999,,17.830000000000002,7.8950000000000005,18.343
88,78,Pt,7.7330000000000005,,165.994866,,-1.064,7.2922662,,9.675,,12.536,0.47600000000000003,,13.412,5.392,17.2
104,63,Eu,8.038,7.006,166.953011,9.184000000000001,23.678,-3.235,12.113,,2.5300000000000002,5.0920000000000005,10.609,18.509,10.451,9.019,0.23600000000000002
103,64,Gd,8.075542800000001,5.1073505,166.945490012,10.3925859,21.844,-2.6010362000000002,9.135719100000001,-17.615000000000002,-1.0382723,4.476123899999999,11.316,12.513523800000002,10.6641784,7.3204693,2.7959848000000003
102,65,Tb,8.101441,4.0283686,166.940007046,11.436869000000002,19.731921200000002,-1.7341794,6.3963762,-16.423000000000002,-1.3699299,6.1456228,8.8011274,6.6600342,11.3535067,8.6746604,2.9954658
101,66,Dy,8.1208782,2.3680076,166.935682415,12.4417984,17.963611,-0.947776,3.3778047,-12.829495999999999,-4.9124301,5.3982985,9.3916445,0.6784494,11.3882055,7.0575877,5.4286388
100,67,Ho,8.1303732,1.0097971000000001,166.933140254,13.524077400000001,16.2685513,-0.1086208,0.2636579,-11.7596521,-5.426632,7.2804377,6.9839591,-4.753177300000001,12.0436371,8.5522454,5.4719271
99,68,Er,8.1317352,-0.7461392,166.932056192,14.910539199999999,14.2549092,0.6666862,-2.6993554,-7.9937562,-9.474095799999999,6.436429100000001,7.507887800000001,-9.8214942,12.3195687,6.5553167000000006,8.3247953
98,69,Tm,8.1225826,-1.9532162000000002,166.932857206,15.755728300000001,12.2230413,1.4099944,-5.016835200000001,-6.7617486,-9.020728100000001,8.727956599999999,4.907943,-14.192052100000002,12.689043100000001,8.2635118,8.0838029
97,70,Yb,8.106202,-3.063619,166.934954069,16.4371486,10.6464899,2.1525966,-7.1221388,-2.9547268,-12.6402316,7.0675119,5.9923934,-18.4966882,13.050931,6.1830978,10.999075000000001
96,71,Lu,8.0831722,-4.0585198,166.938243,17.2266699,9.1741991,2.7772156,-9.175216899999999,-2.9287744,-11.738610300000001,9.5766125,3.2215459,-22.693,13.4799136,8.3499446,10.029063899999999
95,72,Hf,8.054185,-5.1166971000000006,166.9426,17.974885,7.750315700000001,3.4012009,-11.3745494,0.8369740000000001,-15.4412994,7.6800905,4.735745700000001,-26.9689012,13.6852931,6.0386693,13.190811400000001
94,73,Ta,8.0188614,-6.2578523,166.948093,18.6458289,6.486759,4.0154344,-13.517,0.3809514,-14.5349115,10.3246023,1.7810464,-31.278616200000002,13.9952552,8.3313469,11.937713400000002
93,74,W,7.9767045,-7.259,166.95481108,19.3745321,5.0356416,4.7511923,-15.5943518,4.4768059000000004,-18.327195,8.2770592,3.2844029999999997,-35.34,14.465466500000002,6.0536481,15.371546200000001
92,75,Re,7.929,-8.335,166.962604,20.317,3.564,5.276,-17.761,3.975,-17.474,11.068,0.23500000000000001,,14.738,8.266,14.095
91,76,Os,7.873955700000001,-9.4264121,166.971552304,20.895,2.2154863000000002,5.9846624,-19.745,8.0996396,-21.265,9.138652200000001,1.9504962000000001,,14.8713002,5.8376361,17.3830969
90,77,Ir,7.8128253999999995,-10.319,166.981671973,21.62,0.9910369,6.5048887,,7.4759159,-20.361,11.838000000000001,-1.0701069,,15.385,8.2163302,16.046395200000003
89,78,Pt,7.746,,166.99275,22.578,-0.41500000000000004,7.158089200000001,,11.389000000000001,,10.042,0.737,,15.553,5.594,19.318
105,63,Eu,8.012,8.899000000000001,167.957863,8.644,,-3.315,13.531,,3.454,3.552,11.21,20.809,11.911,9.124,1.066
104,64,Gd,8.06,4.631,167.948309,9.922,22.278,-2.649,10.409,-20.109,-0.338,5.445,11.669,14.839,9.31,7.4430000000000005,1.0070000000000001
103,65,Tb,8.082798,5.7772167,167.943337074,11.115039699999999,20.61,-1.9739511,7.27805,-16.3,-0.9410483000000001,4.969416900000001,9.294420400000002,8.5311974,12.3005519,8.608656100000001,3.5943243000000002
102,66,Dy,8.1125293,1.5008333,167.937134977,12.1165635,18.7654139,-1.2896262,4.430833300000001,-15.0716371,-4.3502574,6.718265000000001,9.9642866,3.0214687,9.9611867,6.8945068,3.6137864
101,67,Ho,8.1168061,2.93,167.935523766,13.131528399999999,16.8283958,-0.3791637,1.2531474,-11.4651199,-4.8412936,5.851090699999999,7.4367513,-2.9863997,13.2360464,8.417112600000001,6.1760204000000005
100,68,Er,8.1295897,-1.6768526,167.932378282,14.2077227,14.9827028,0.5535017,-1.4093646000000002,-10.3667513,-8.5174328,7.7712936,7.9987437,-7.6286737,10.7919148,6.7728413000000005,6.2694596
99,69,Tm,8.114951600000001,0.267488,167.934178457,15.568536700000001,12.819981799999999,1.2432228,-4.2395471,-6.3218911,-8.7937963,6.8405801,5.312094,-12.9184655,14.3225731,8.0730292,9.2320409
98,70,Yb,8.111887,-4.5070351,167.933891297,16.1287962,11.2336641,1.9377907,-6.2193091,-5.579582,-12.124903399999999,9.061284299999999,6.3257212,-16.686936300000003,11.0174184,6.214212900000001,8.5878881
97,71,Lu,8.080402600000001,-1.7122739999999999,167.938729798,17.1944808,9.7642957,2.4111956,-8.6789184,-1.8186860999999999,-11.6763881,7.6178683000000005,3.7719023000000003,-21.2779424,15.231682000000001,8.0866115,11.503594999999999
96,72,Hf,8.065553600000001,-6.9666444,167.940568,17.644204600000002,8.3447931,3.2266973,-10.4676272,-2.0596282,-15.080811200000001,9.964114100000002,5.1232473,-25.365562699999998,11.371236300000001,5.9457452,10.5812326
95,73,Ta,8.0194287,-3.5009828000000005,167.948047,18.438769100000002,6.9508684,3.8235466000000002,-12.5990239,1.8433971,-14.3720191,8.1141668,2.2151227,-29.7276828,16.1758829,8.1056547,13.6947366
94,74,W,7.9939327,-9.098041100000001,167.951805459,19.1480955,5.6118834,4.50051,-14.897935499999999,1.2858601,-18.131,10.8710363,3.8308370000000003,-33.8828526,11.9156569,5.8189965,12.388984500000001
93,75,Re,7.9351208,-5.7998944,167.961572607,20.1001902,4.2750512,5.0629999,-17.128658899999998,5.2672041,-17.3673469,9.032,0.9906481,-38.325,16.8033888,7.9304822,15.6993846
92,76,Os,7.895940800000001,-11.3287644,167.96779905,20.706104800000002,2.6854659,5.8156444,-18.984917000000003,4.8092463,-20.993864600000002,11.5674525,2.45,,12.5531474,5.528413899999999,14.5127236
91,77,Ir,7.823850900000001,-7.6561526,167.979960978,21.503,1.4068372999999998,6.381295000000001,-21.196,8.879,-19.984,9.665100200000001,-0.5436589000000001,,17.4761028,7.944,17.639525300000003
90,78,Pt,7.7736217,-13.540000000000001,167.988180196,22.37,0.15649369999999999,6.9897297,,8.1998115,,12.328,1.2266006,,13.006,5.449,16.383
105,64,Gd,8.035,6.59,168.952882,9.257,23.138,-2.805,11.706,-19.539,0.8200000000000001,3.8120000000000003,11.929,17.031,10.591000000000001,7.723,2.206
104,65,Tb,8.069,5.1160000000000005,168.945807,10.74,21.288,-2.176,8.316,-18.519000000000002,0.007,5.771,9.620000000000001,10.794,11.006,8.755,1.915
103,66,Dy,8.0947566,3.2,168.940315231,11.8271948,19.3982199,-1.4951435,5.3251534000000005,-14.735,-3.6080965000000003,5.108929900000001,10.1037996,4.7795175,10.9978797,7.0768230999999995,4.421318599999999
102,67,Ho,8.1090622,2.1251534000000003,168.93687989,12.6591872,17.4908694,-0.6320761,2.4786445,-13.303799600000001,-3.8780965000000003,6.8080964999999996,7.5265829,-0.7134825,11.8262483,8.652516100000001,4.659170100000001
101,68,Er,8.1170078,0.353491,168.934598444,13.774543600000001,15.5876543,0.2662097,-0.545636,-9.651736300000001,-7.680102600000001,6.00325,8.150903,-6.204268,12.069102500000001,7.013231,7.309709600000001
100,69,Tm,8.1144702,-0.899127,168.934218956,14.8741737,13.5731377,1.1984473,-3.192127,-8.504394,-7.7661056,8.0335936,5.574394000000001,-10.984219,12.725408600000002,8.5135457,7.442087000000001
99,70,Yb,8.1045206,-2.293,168.935184208,15.928263000000001,11.6642136,1.7209095,-5.6586321,-4.675267,-11.374013699999999,6.8669786,6.3521196,-15.4576607,12.8783964,6.375006000000001,10.195019700000001
98,71,Lu,8.0863233,-3.3656321,168.937645845,16.698882,10.1173528,2.4225813,-7.792092,-4.0591196,-10.7932877,9.0810137,3.7916316,-19.6732801,13.2181802,8.375234500000001,9.450353
97,72,Hf,8.0617791,-4.4264600000000005,168.941259,17.3917697,8.704936900000002,3.1535769,-9.7990286,-0.42599950000000003,-14.3943,7.4276556000000005,4.9330346,-23.9939107,13.5201932,6.1681469,12.5232136
96,73,Ta,8.0309577,-5.3725686,168.946011,18.0820068,7.3420959,3.7268966,-11.8811881,-0.5065746,-13.4688229,9.9678401,2.2188487,-28.197019100000002,13.888133400000001,8.4326091,11.3769539
95,74,W,7.9945381,-6.5086195,168.951778689,18.9672905,6.0280471,4.2927302,-14.194882100000001,3.1537199,-17.194295399999998,8.0962543,3.8129245000000003,-32.454,14.1440049,6.0439688,14.5875247
94,75,Re,7.951396300000001,-7.6862626,168.958765979,19.718,4.636124799999999,5.0137087000000005,-16.315831,2.695695,-16.4855703,10.6856759,0.8052878,-36.621,14.3947721,8.3422791,13.3349353
93,76,Os,7.9012861999999995,-8.6295684,168.967017521,20.366760300000003,3.2077145000000002,5.7134159,-18.259,6.8809748,-20.1280722,8.7993077,2.2170663,,14.822000000000001,5.9784059,16.8108887
92,77,Ir,7.8455944,-9.629,168.976281743,21.1636039,1.838,6.1410216,-20.305,6.4125021,-19.1546563,11.498503699999999,-0.6126077000000001,,15.1162513,8.2021653,15.3903213
91,78,Pt,7.784,-10.676,168.986619,21.853,0.543,6.8576107,,10.242,-23.065,9.525,1.087,,15.319,5.7056108000000005,18.614
90,79,Au,7.716,,168.99808,,-0.706,7.382000000000001,,9.589,,12.39,-1.933,,15.676,7.8580000000000005,17.164
106,64,Gd,8.017,5.86,169.956146,8.843,23.788,-2.825,12.86,,1.559,5.031,12.478,19.258,9.111,7.784,0.126
105,65,Tb,8.047,7.0,169.949855,10.071,22.037,-2.386,9.528,-18.338,0.8150000000000001,4.301,10.109,13.086,12.151,8.93,2.707
104,66,Dy,8.084,2.528,169.94234,11.294,20.138,-1.764,6.398000000000001,-17.109,-2.985,6.1850000000000005,10.518,7.054,9.782,7.037,2.712
103,67,Ho,8.0937902,3.87,169.939626548,12.3209187,18.0342747,-0.8536521,3.5578003,-13.046000000000001,-3.3876687000000003,5.5128222,7.9304752,1.0687200000000001,13.0316911,8.537992399999998,5.2919708000000005
102,68,Er,8.1119529,-0.3121997,169.935471933,13.260918700000001,16.127058,0.0520409,0.656415,-11.800475200000001,-6.9041777,7.2576687,8.600475200000002,-3.8536534000000002,10.6625245,7.0360000000000005,5.4503394
101,69,Tm,8.1055144,0.9686148,169.935807093,14.625571599999999,14.314024999999999,0.850109,-2.4890803,-8.2882754,-7.491104900000001,6.591978,6.163122,-9.657644000000001,13.9047242,8.3579968,8.1305467
100,70,Yb,8.1066101,-3.457695,169.934767242,15.3266983,12.3526397,1.7353,-4.510068400000001,-7.1317367,-10.7527197,8.459719699999999,6.7782457,-13.4731243,11.2592568,6.643242900000001,8.1717291
99,71,Lu,8.0816686,-1.0523734,169.93847923,16.3760384,10.5717973,2.1553283000000003,-7.1685637,-3.3205506999999996,-10.6606567,7.2950247,4.2196777,-18.4022376,14.9844399,8.147721800000001,10.883284900000001
98,72,Hf,8.0708762,-6.1161903,169.939609,17.035939,9.251935900000001,2.9149303,-8.963055899999999,-3.1673043,-14.0347433,9.6082833,5.4603043,-22.3281688,11.5297782,6.1364761,9.9824422
97,73,Ta,8.0302965,-2.8468656,169.946175,17.886393100000003,7.6427807,3.4584009,-11.2336739,0.655886,-13.2911216,7.918553,2.7097461,-26.955000000000002,15.9336945,8.1941466,13.0350134
96,74,W,8.0089482,-8.3868083,169.949231235,18.5405103,6.5081891,4.1432687,-13.3651129,0.13711949999999998,-16.952875499999998,10.4442561,4.2893404,-30.9916023,11.813915699999999,5.9243151,11.8233592
95,75,Re,7.955012,-4.9783046,169.958234844,19.2517431,5.088025200000001,4.7688681,-15.722,4.0974679,-16.2523298,8.566067199999999,1.2751007,-35.201,16.6997411,8.0532711,15.093470400000001
94,76,Os,7.9211257999999996,-10.743,169.963579273,20.0733329,3.6107034,5.536863500000001,-17.6264894,3.7032039,-19.9035936,11.2740252,2.8054156,-39.341,12.5800046,5.772,13.813922699999999
93,77,Ir,7.853,-6.883,169.975113,20.659,1.965,6.23,-19.479,7.938,-18.79,9.16,-0.252,,17.523,8.18,17.298000000000002
92,78,Pt,7.8082365000000005,-12.596,169.982502087,21.4317606,0.8821496,6.707408099999999,-21.715,7.134811200000001,-22.582,11.906,1.4947573,,13.0778351,5.6373012,15.8460603
91,79,Au,7.73,-9.119,169.996024,22.376,-0.385,7.1773107000000005,,11.101,,9.986,-1.4716999000000002,,18.018,7.914000000000001,19.015
106,65,Tb,8.03,6.24,170.953011,9.432,22.688,-2.4250000000000003,10.748000000000001,-20.199,1.869,5.132,10.209,15.44,10.831,9.244,1.127
105,66,Dy,8.062,4.508,170.946312,10.557,20.698,-1.659,7.708,-16.449,-1.844,4.371,10.589,9.297,11.181000000000001,7.635,3.786
104,67,Ho,8.0836021,3.2,170.941472713,11.8644487,18.615000000000002,-1.0596558,4.692449,-15.097,-2.4816265,6.3516265,8.097,3.3106432,11.788994500000001,8.904630800000001,3.9097611000000003
103,68,Er,8.0977404,1.4924490000000001,170.938037372,12.9392952,16.699754700000003,-0.23128710000000002,1.5889958,-11.297,-5.9938263,5.6816265,8.769279500000001,-2.2864712,11.788994500000001,7.205464200000001,6.4869778
102,69,Tm,8.1018931,0.0965468,170.936435162,14.0782533,14.992203700000001,0.6442715,-1.3818058000000002,-10.2617285,-6.5176605,7.4862753,6.3917285,-7.4899927,12.421698899999999,8.6430152,6.4953622
101,70,Yb,8.0978826,-1.4783526,170.936331515,15.073927,12.963597100000001,1.5575217000000001,-3.875467,-6.488275400000001,-10.0719024,6.6142073,6.8004751,-12.220722700000001,12.6786431,6.869615700000001,9.3288153
100,71,Lu,8.0846621,-2.3971144,170.937918591,15.8885745,11.1317535,2.2897352,-6.1081869,-5.322122500000001,-9.645923199999999,8.593549800000002,4.353507700000001,-16.5781806,13.257868700000001,8.6154563,9.130315300000001
99,72,Hf,8.0660687,-3.7110725,170.940492,16.857092100000003,9.633766,2.7336334000000004,-8.3452557,-1.9563933,-13.364999000000001,7.2488088,5.4140884,-21.1341131,13.3619831,6.5055357,11.794917700000001
98,73,Ta,8.0397914,-4.634183200000001,170.944476,17.572479599999998,8.2156935,3.3810868999999997,-10.469993700000002,-1.7030159,-12.5007921,9.653926499999999,2.7553893,-25.3082485,13.7074236,8.5043341,10.998955200000001
97,74,W,8.0081158,-5.8358106,170.949451,18.310865000000003,6.9471424,3.9567502,-12.7888575,1.8787939,-16.2534173,7.866609,4.2373964,-29.6195266,13.9151467,6.1718729,13.9208643
96,75,Re,7.9694131,-6.9530469,170.955716,18.983673900000003,5.5377919,4.6758637,-14.838254800000001,1.5984142,-15.3959113,10.4176067,1.2484514,-33.6879816,14.3783887,8.5067006,12.7900305
95,76,Os,7.924176900000001,-7.8852079,170.963180402,19.7168896,3.9573136,5.3710583,-16.8306692,5.704595500000001,-19.186,8.442864400000001,2.6822128,-37.636,14.8228161,6.3617064,16.2420946
94,77,Ir,7.8734895,-8.945461300000002,170.97164552,20.4612502,2.5807251,5.997,-18.8497268,5.2029951,-18.1841459,11.301,-0.2246904,,15.021761399999999,8.447019899999999,15.0292613
93,78,Pt,7.8166017000000005,-9.9042655,170.981248868,21.145,1.3215265,6.6073756999999995,-20.806,9.1701517,-21.835,9.238684600000001,1.573,,15.3376543,6.0637168,18.1748282
92,79,Au,7.7541069,-10.901,170.991881533,21.916,0.0468294,7.085229099999999,,8.331,-21.049,11.93,-1.4479279,,15.613,8.3118297,16.7503293
91,80,Hg,7.686,,171.003585,,-1.225,7.6676865,,12.349,,10.148,0.246,,15.838000000000001,5.673,19.996
107,65,Tb,8.006,8.07,171.957391,9.123,23.408,-2.865,11.794,,2.249,3.991,10.769,17.684,11.871,9.064,1.617
106,66,Dy,8.049,3.724,171.948728,10.192,21.488,-2.035,8.723,-18.839,-1.313,5.821,11.279,11.496,9.661,7.585,1.7770000000000001
105,67,Ho,8.066,4.999,171.94473,11.389000000000001,19.352,-1.127,5.89,-15.003,-1.837,5.037,8.763,5.252,12.937,8.976,4.643
104,68,Er,8.090405200000001,0.8909756,171.939363461,12.517700699999999,17.351,-0.34909629999999997,2.7728780000000004,-13.761000000000001,-5.343625100000001,6.8360741,9.2537271,-0.08034680000000001,10.465742500000001,7.1774865000000005,4.7598335
103,69,Tm,8.0910367,1.8819024,171.938406959,13.720876,15.7139823,0.2607614,-0.6374781,-10.1447028,-6.1380539,6.2346007,6.9447028,-6.0435714,13.444766900000001,8.4116644,7.0688579
102,70,Yb,8.0974295,-2.5193805000000005,171.936386654,14.6341637,13.7258847,1.308859,-2.8532248,-8.8266052,-9.4983089,8.0199563,7.334156200000001,-10.1582652,11.2506647,6.883253,7.312109
101,71,Lu,8.0782334,-0.3338443,171.93909132,15.572478199999999,11.5187039,2.1513869,-5.4060933,-4.8147757,-9.376042799999999,6.9789284,4.7182288,-15.1692372,14.73866,8.5035065,10.1849805
100,72,Hf,8.071743900000001,-5.072249,171.939449716,16.2910073,10.2162449,2.7527192,-7.3050404,-4.3843845,-12.753271100000001,9.042198500000001,5.8627371,-19.158590800000002,11.6148092,6.5443508,9.6196978
99,73,Ta,8.0377056,-2.2327914,171.944895,17.3349486,8.6016909,3.3179331000000003,-9.7631439,-0.7904881,-12.315205200000001,7.6810220000000005,3.1876025,-23.9506092,15.6346849,8.2509678,12.3989468
98,74,W,8.0201757,-7.5303525,171.947292,17.949022799999998,7.4212729,3.8384505,-11.853550499999999,-0.9548112,-15.9182244,10.082413800000001,4.6658837,-27.9905213,11.751285900000001,6.057299100000001,11.266106100000002
97,75,Re,7.971845999999999,-4.3231979,171.955376165,18.8054786,6.0071107,4.4021586,-14.1874652,2.8644689,-15.340918799999999,8.387871800000001,1.7697143000000002,-32.2488279,16.4347729,8.2150831,14.3699987
96,76,Os,7.9421626,-9.8642673,171.960017309,19.460585299999998,4.5307783,5.2243737,-16.1369708,2.5534836000000003,-18.9029287,11.0177208,3.2823269,-36.1822795,12.3711625,6.0296615000000005,13.320628000000001
95,77,Ir,7.8802637,-6.2727034999999995,171.970607035,20.34,3.0533193,5.9905999,-18.0613627,6.581940400000001,-17.9841227,9.0386614,0.3711065,,17.257125199999997,8.2076662,16.6762759
94,78,Pt,7.839246,-11.7886592,171.977341059,20.9501038,1.7589204,6.4634089999999995,-20.045308700000003,5.901597,-21.615684700000003,11.7114192,1.9836109,,12.787,5.8508013000000005,15.2627167
93,79,Au,7.7661587,-8.2566495,171.989996704,21.757,0.714,6.923303700000001,,9.805048300000001,-20.728,9.8270255,-0.859587,,17.6919985,8.01,18.4218075