N,Z,element,be_per_a,beta_decay_energy,atomic_mass,s2n,s2p,qa,q2b,qep,qbn,s1n,s1p,q4b,qda,qpa,qna
104,76,Os,7.9874171,-6.378667900000001,179.952381665,16.9545906,8.5270741,3.8604949000000004,-9.9263224,-2.3499220000000003,-14.3457965,9.407378300000001,5.0608567,-24.105684399999998,12.0080668,6.7770326,10.991935400000001
103,77,Ir,7.947633700000001,-3.5476546,179.959229446,17.865852200000003,6.9020144000000005,4.6604446,-12.351883599999999,1.3178112000000002,-13.7807206,7.967128600000001,2.2463635,-28.5870916,16.2775204,8.842973400000002,13.938047500000001
102,78,Pt,7.9235781,-8.804229,179.96303801,18.5750258,5.4635742,5.2763933,-14.179362,1.3012911,-17.5126216,10.233066,3.6371271000000003,-32.488806700000005,12.535245500000002,6.4816045,13.1729749
101,79,Au,7.8703194000000005,-5.375133,179.972489738,19.4652535,3.9492746000000003,5.8313605,-16.235208,5.1671019,-16.7640406,8.7083926,0.64649,,17.0826463,8.6088455,16.0681805
100,80,Hg,7.8361111,-10.860075,179.97826018,20.0778037,2.8309698,6.2584894,-18.3094447,4.728643,-20.0521995,11.388907600000001,2.5509126,,12.763322700000002,6.1592782,14.7663255
99,81,Tl,7.771431,-7.4493696,179.98991895,20.92,1.6653515,6.7056128,,8.3091624,-19.513364600000003,9.1921244,-0.2535144,,17.6357145,8.249439700000002,17.8017002
98,82,Pb,7.7256993000000005,,179.997916177,21.657075799999998,0.20366499999999998,7.4186542,,7.702884,,12.063994899999999,0.9604077999999999,,13.383000000000001,6.2630895,16.4811564
112,69,Tm,7.969,5.649,180.961954,9.682,,-1.585,9.358,,1.209,5.341,9.549,12.999,11.351,9.685,2.337
111,70,Yb,7.996,3.709,180.95589,10.591000000000001,19.587,-0.655,6.315,-15.197000000000001,-2.483,4.439,10.207,7.146,11.523,8.016,4.8180000000000005
110,71,Lu,8.011930099999999,2.6055435000000005,180.951908,11.881037500000001,17.475,0.34700000000000003,3.6416496000000005,-13.917,-3.0892565,6.192256500000001,7.3660000000000005,1.7199973,12.553,9.7437799,5.089
109,72,Hf,8.022003,1.0361061,180.949110834,13.0825579,15.341000000000001,1.1585306,0.8309869,-9.972,-6.5406453,5.6948,8.015453,-3.8529899999999997,12.3668622,7.7989779,7.920583400000001
108,73,Ta,8.023405,-0.2051193,180.947998528,14.2242441,13.9579931,1.5199228,-1.9216523,-9.0515591,-6.8741392,7.5767514,5.948559100000001,-8.9760289,12.734779200000002,8.8603568,7.5452187
107,74,W,8.017949400000001,-1.7165331000000001,180.948218733,15.081334100000001,12.348850700000002,2.2218846,-4.683976899999999,-5.7434398,-10.4678993,6.669020000000001,6.589285100000001,-13.8524475,12.834318300000001,7.228,9.8478231
106,75,Re,8.0041434,-2.9674438,180.950061507,16.0757358,10.7378977,2.7724177,-7.0543765,-4.8727521,-10.2325321,8.751366200000001,4.170139900000001,-18.6462719,13.4886421,8.7537092,9.727
105,76,Os,7.9834263000000005,-4.0869327,180.953247188,16.6724666,8.8326633,3.7268471,-9.168470600000001,-1.2026960999999998,-13.643756100000001,7.2650883,5.0015754,-22.8888407,13.7451512,6.9675448,12.5035
104,77,Ir,7.9565242,-5.081537900000001,180.957634691,17.5239521,7.456665200000001,4.3812240000000005,-11.5918954,-0.9146427,-13.104478,9.556823399999999,2.3958086,-26.664286,14.2679093,8.9452632,11.8368245
103,78,Pt,7.9241271,-6.5103575000000005,180.963089946,18.2560061,5.939302,5.1500349,-13.7203701,2.6857294,-16.8271691,8.0229401,3.6929385000000003,-31.2708663,14.411029000000001,6.7368717,14.8091481
102,79,Au,7.8838359,-7.2100126,180.970079102,19.0252042,4.3673627,5.7513689,-15.0723906,2.817419,-15.691944600000001,10.316811600000001,0.7302356,,15.1077945,8.990401,14.0295762
101,80,Hg,7.8396792,-7.862378,180.977819368,19.8708396,2.970942,6.2843935,-17.5504962,6.479777,-19.342007000000002,8.481932,2.3244520000000004,,15.0382516,6.5059569,16.982760600000002
100,81,Tl,7.791918300000001,-9.688118200000002,180.986259978,20.671753400000004,2.3881196,6.322071200000001,,5.537926000000001,-18.9289986,11.479629000000001,-0.16279300000000002,,14.844981599999999,8.380651700000001,15.1506819
99,82,Pb,7.734070399999999,,180.9966606,21.3048753,0.7556494,7.240276,,9.8509113,,9.2408804,1.0091638,,15.8698079,6.367,18.851117
112,70,Yb,7.984,2.87,181.958239,10.323,20.298000000000002,-1.065,7.15,,-2.174,5.883,10.749,9.346,9.981,7.864,2.826
111,71,Lu,7.996,4.28,181.955158,11.236,18.178,0.045,4.6610000000000005,-13.619,-2.438,5.0440000000000005,7.971,3.676,13.661,9.734,5.777
110,72,Hf,8.0148381,0.3810486,181.950563684,12.4127962,15.907,1.2025871,2.1965078,-12.25,-5.6818900999999995,6.7179963,8.541192800000001,-1.4405270000000001,11.3376469,7.8734321000000005,6.237
109,73,Ta,8.0126332,1.8154592,181.950154612,13.6396901,14.332150799999999,1.48228,-0.9845408,-8.9222414,-6.268058,6.0629387,6.3166979,-7.3790022,14.0595983,8.8964067,8.2747305
108,74,W,8.0183096,-2.8000000000000003,181.948205636,14.7525372,13.04461,1.7643059,-3.6370348,-8.1321571,-9.8000503,8.083517200000001,7.096050900000001,-12.077723500000001,11.3982938,6.9753674000000006,7.8632945
107,75,Re,7.9986264,-0.8370348000000001,181.95121156,15.7514165,11.0904553,2.727,-6.3944614,-4.2960509,-9.9674941,7.0000503,4.5011702,-17.1421682,14.900906,8.713158,10.557714400000002
106,76,Os,7.9897287,-5.5574266,181.952110154,16.3955475,9.5508083,3.3730407000000002,-8.4406886,-3.6641353,-13.2173919,9.130459199999999,5.380668399999999,-21.0322239,11.9390615,6.839258200000001,10.3325399
105,77,Ir,7.9548948,-2.883262,181.958076296,17.2167888,7.7922611,4.1768591,-10.7477068,0.1767582,-12.7415033,7.6599654,2.7906855999999998,-25.724469400000004,16.0153222,8.8325101,13.1790318
104,78,Pt,7.9347541,-7.8644447,181.961171605,17.8811813,6.3901649,4.9509069,-12.591535200000001,0.0925764,-16.3685987,9.8582413,3.9943563,-29.343864000000004,12.5199164,6.777354000000001,12.4981192
103,79,Au,7.8872442000000005,-4.7270905,181.969614433,18.8209656,4.904388,5.5254222,-14.9767626,3.8700884,-15.7141666,8.504154,1.2114495,,16.836706600000003,8.8282068,15.424145699999999
102,80,Hg,7.856972600000001,-10.2496721,181.974689173,19.4690081,3.7249521,5.9956845,-16.7523288,3.515641,-18.8494541,10.987076100000001,2.9947165,,12.759568100000001,6.275741699999999,14.337644300000001
101,81,Tl,7.796357100000001,-6.502656699999999,181.985692649,20.079411,2.279509,6.5508999,,7.254955600000001,-18.2879002,8.599782,-0.044943,,17.6341072,8.4697658,17.3077608
100,82,Pb,7.7563296,,181.992673537,21.026124,1.1519853,7.065873400000001,,6.5475997,,11.7852436,1.3147783,,13.2766888,6.3091306000000005,15.7547695
113,70,Yb,7.963,4.716,182.962426,10.054,,-1.345,8.284,,-1.301,4.171,10.799,11.366,11.15,8.034,3.826
112,71,Lu,7.9848125,3.5674325,182.957363,11.0613358,18.854,-0.241,5.5774325,-15.515,-1.7377960000000001,6.017,8.105,6.0935486,12.083,9.868,4.1
111,72,Hf,8.0000315,2.0100000000000002,182.953533203,12.0232248,16.773,0.931,3.0821161000000004,-11.672,-4.924180000000001,5.3052286,8.802,0.38021330000000003,12.2246748,8.2569846,7.083
110,73,Ta,8.00674,1.0721161,182.95137538,12.997118700000001,15.074074300000001,1.3405506,0.5161161,-10.812,-5.1187208,6.9341800000000005,6.5328816,-5.0914082,12.8202183,9.349984599999999,7.029331600000001
109,74,W,8.0083234,-0.556,182.950224416,14.274353999999999,13.5406469,1.6724576,-2.7019028,-7.6049976,-8.990836799999999,6.1908368000000005,7.223949,-10.592465899999999,12.784208399999999,7.4320232,9.0602155
108,75,Re,8.0010101,-2.1459028,182.950821306,15.434887100000001,11.948540800000002,2.1228775,-5.607524300000001,-6.667949,-9.2718717,8.4348368,4.852489800000001,-15.6181751,13.1350891,8.6906354,8.7703702
107,76,Os,7.985008700000001,-3.4616215,182.953125028,16.2564281,10.0077572,3.206571,-7.8905632,-2.706587,-12.683395500000001,7.1259689,5.506587000000001,-19.8591045,13.5644588,7.0376589,11.618885200000001
106,77,Ir,7.961817600000001,-4.4289417,182.956841231,16.881739300000003,8.2626688,3.9572578,-10.0106508,-2.0449655,-12.105036,9.221774,2.8820004,-23.6148771,14.0586365,9.0181145,11.2816274
105,78,Pt,7.9333406,-5.581709200000001,182.961595895,17.5343356,6.801171,4.8220248,-11.968541300000002,1.5469413,-15.5405391,7.6760944,4.0104853,-28.1931888,14.400645500000001,7.0683883,14.229403099999999
104,79,Au,7.898564400000001,-6.3868322,182.967588106,18.4629839,5.306394500000001,5.465315800000001,-13.6042263,1.5712239,-14.6859204,9.958829900000001,1.3120382,,14.9008167,9.1024429,13.432444499999999
103,80,Hg,7.8593885000000006,-7.217394100000001,182.974444652,19.2861643,4.0011003,6.038556,-16.2246475,5.074794,-18.5487604,8.2990882,2.7896507,,14.777291400000001,6.6850461,16.271622
102,81,Tl,7.815674100000001,-9.0072534,182.982192843,19.9311482,3.2940636,5.9763946,,4.427743400000001,-17.8340229,11.3313663,0.29934710000000003,,14.7846729,8.5273072,14.6847872
101,82,Pb,7.762179000000001,,182.991862527,20.612013100000002,1.4968229,6.9279999,,8.7079062,,8.826769500000001,1.5417659000000001,,15.9295483,6.6744855,18.316907500000003
114,70,Yb,7.9510000000000005,3.7,183.965002,9.843,,-1.846,8.899000000000001,,-0.9560000000000001,5.672,,13.105,9.6,7.703,
113,71,Lu,7.9670000000000005,5.199,183.96103,10.673,19.388,-0.555,6.539,,-1.088,4.656,8.589,7.9190000000000005,13.311,9.652000000000001,4.7860000000000005
112,72,Hf,7.9907227999999995,1.34,183.955448507,11.5924527,17.177,0.796,4.206,-13.788,-4.2772242,6.2872242,9.0723097,2.7531126,10.981,8.1620169,5.235
111,73,Ta,7.9937535,2.866,183.954009958,12.5514041,15.647,1.4121074000000002,1.3803667000000002,-10.4123097,-4.5451081,5.6172242,6.8448772,-3.2285975,13.9209904,9.4275604,7.6043639
110,74,W,8.0050777,-1.4856333,183.95093318,13.601944900000001,14.233758700000001,1.6491074000000001,-1.4528874,-9.7108772,-7.967108100000001,7.411108100000001,7.7008772,-8.3729663,11.436039000000001,7.597666500000001,7.3439074
109,75,Re,7.9927517,0.032746000000000004,183.952528073,14.916311600000002,12.367076800000001,2.2888955,-4.608964100000001,-6.2152438000000005,-8.6273776,6.4814748,5.1431278,-13.9011054,14.737131600000001,8.8781806,9.8656469
108,76,Os,7.9886778000000005,-4.6417101,183.952492919,15.7860924,10.584363600000001,2.9587617,-6.920078900000001,-5.1758737,-12.121745,8.6601235,5.7318737,-17.907778200000003,11.9043856,7.1289015000000004,9.6277816
107,77,Ir,7.9591992000000005,-2.2783688000000004,183.957476,16.7018089,8.742653500000001,3.8015924,-9.2921412,-1.0901636000000001,-11.9089766,7.4800349,3.2360664000000003,-22.7275003,15.7090608,8.803167799999999,12.5529586
106,78,Pt,7.942564900000001,-7.0137724,183.959921929,17.3067021,7.3013195,4.5987954,-10.987699300000001,-0.9576976,-15.2123169,9.6306078,4.4193191,-26.2809002,12.4300031,6.994604000000001,11.8638837
105,79,Au,7.9001947,-3.9739269,183.967451523,18.157374400000002,5.8449737,5.233899900000001,-13.435359,2.5944533,-14.585376700000001,8.1985445,1.8344883,-31.573,16.560513500000003,8.926838400000001,14.790723400000001
104,80,Hg,7.8743454,-9.4614321,183.971717709,18.910538000000003,4.7543088,5.6601723,-15.2932009,2.1394385000000002,-17.8288439,10.6114498,3.4422706,,12.6699956,6.3904079000000005,13.683112300000001
103,81,Tl,7.8186727000000005,-5.8317688,183.981874973,19.698777999999997,3.1573214,6.3173754,-18.138,6.0191615,-17.3746652,8.3674118,0.3676707,,17.4043372,8.6418274,16.634187
102,82,Pb,7.7827264,-12.306000000000001,183.988135634,20.3696659,2.0526432,6.7740111,,5.4640981,,11.5428964,1.7532960000000002,,12.9864339,6.6112181,15.255943100000001
101,83,Bi,7.712,,184.001347,,-0.004,8.22,,10.553,,,-1.546,,18.79,9.229000000000001,19.7
115,70,Yb,7.929,5.48,184.969425,9.623,,,9.839,,-0.251,3.951,,14.907,,7.8740000000000006,
114,71,Lu,7.955,4.359,184.963542,10.387,,-0.9460000000000001,7.434,,-0.532,5.731,8.649000000000001,9.859,11.75,9.804,3.176
113,72,Hf,7.9739711,3.0745667,184.958862,11.178893899999998,17.898,0.343,5.0680667,-13.008000000000001,-3.5516698,4.8916698,9.308,4.4861037,12.1071167,8.314,6.227
112,73,Ta,7.9863615,1.9935,184.955561317,12.2434606,16.2561992,0.9781274,2.4246764,-12.383000000000001,-3.7602363999999997,6.6262364,7.1838894,-1.0588134,12.599982500000001,9.519320200000001,6.022
111,74,W,7.9929083,0.4311764,184.953421206,13.1648446,14.682266600000002,1.5901709000000002,-0.5819629,-9.177389400000001,-7.2393698,5.7537364,7.8373894,-6.699727200000001,12.6164825,7.906868800000001,8.3081672
110,75,Re,7.9910101000000004,-1.0131393,184.95295832,14.1520209,13.103443,2.1951007,-3.4834898,-8.268565800000001,-7.6378002,7.6705461999999995,5.4025658000000005,-11.9608977,13.2574222,9.2911516,8.2580394
109,76,Os,7.9813047,-2.4703505,184.954045969,15.284784400000001,11.0181876,3.0031208,-6.1177642,-4.3894265,-11.266371,6.6246609,5.8750598,-16.6222573,13.7145615,7.504291,11.086638
108,77,Ir,7.9637226000000005,-3.6474137,184.956698,16.2760554,9.103837100000002,3.7569382,-8.477407900000001,-3.4047093,-11.074389300000002,8.796020500000001,3.3719634000000003,-20.577813,14.0390093,9.1376066,10.7569885
107,78,Pt,7.9397779,-4.8299942,184.960613659,17.057583299999997,7.6023262,4.4369081,-10.5044931,0.2754504,-14.440748,7.4269756,4.3662597,-25.1469326,14.2248015,7.2275938,13.5673673
106,79,Au,7.909441,-5.6744989,184.965798871,17.8092983,6.2339535,5.1799695,-12.1004051,0.4637344,-13.584680700000002,9.610753800000001,1.8146343999999999,-29.622,14.625854,9.1743259,12.839934900000001
105,80,Hg,7.8745391,-6.425906200000001,184.971890696,18.521631600000003,4.988396300000001,5.7729305,-14.6424395,3.8598645,-17.3716139,7.9101818,3.1539079,,14.718643700000001,6.9843801,15.6311718
104,81,Tl,7.8355756,-8.2165333,184.978789189,19.313119500000003,4.1441992,5.6884793,-17.522000000000002,3.2719983000000004,-16.777476500000002,10.945707700000002,0.7019286,,14.7577178,8.6831958,14.1926333
103,82,Pb,7.786933,-9.305,184.98761,20.1038396,2.3144981,6.6949999,,7.5146047,-20.867,8.5609432,1.9468273999999999,,15.7568569,6.6500569,17.682076000000002
102,83,Bi,7.732,,184.9976,,0.226,8.138,,7.359,,11.562,-1.5270000000000001,,16.055,9.453,16.738
115,71,Lu,7.936,6.104,185.96745,10.162,,-1.2550000000000001,8.287,,-0.07200000000000001,4.431,9.129,11.607000000000001,12.991,9.544,
114,72,Hf,7.964303200000001,2.1833883000000003,185.960897,11.067397300000001,18.402,0.051000000000000004,6.0843883,-15.233,-3.1011609,6.1757276,9.753,6.5758178,10.587,8.1559554,4.222
113,73,Ta,7.9718357,3.9010000000000002,185.958553036,11.910785599999999,16.885,0.738,3.3197181000000002,-11.936,-3.2910492,5.284549200000001,7.5767689,0.5647481000000001,13.6026575,9.5399996,6.754914
112,74,W,7.9886026,-0.5812819,185.95436514,12.945785599999999,15.5870916,1.116118,0.4914295,-11.4777689,-6.7608728000000005,7.1920492000000005,8.403202199999999,-4.6441549,11.0416575,7.648999600000001,6.4213466
111,75,Re,7.9812713,1.0727114,185.954989172,13.8501371,13.6658097,2.0784485,-2.7549699999999997,-7.8219202999999995,-7.1927302,6.1795909,5.8284203,-10.2124643,14.4889394,9.3023976,9.012628500000002
110,76,Os,7.9828324,-3.8276813,185.953837569,14.890102500000001,11.8725211,2.8211964,-5.1355844,-6.9011316,-10.735792100000001,8.2654416,6.4699553,-14.4609728,11.9305947,7.673686200000001,9.0120332
109,77,Ir,7.9580473000000005,-1.307903,185.957946754,15.7041312,9.5304731,3.8488777,-7.4574943000000005,-2.6422739,-10.555524499999999,6.9081108,3.6554133,-19.289410500000002,15.791022000000002,9.3554647,12.2837145
108,78,Pt,7.9468094,-6.1495913,185.959350845,16.674597000000002,8.1898241,4.3197459,-9.3253884,-2.3475102000000003,-14.0776156,9.2476215,4.817860700000001,-23.1835501,12.4572149,7.2017462,11.4457148
107,79,Au,7.9095409000000005,-3.1757972,185.965952703,17.5387782,6.6819429,4.911910600000001,-11.8319161,1.3317305,-13.602523300000001,7.928024300000001,2.3156832,-28.569358800000003,16.328437400000002,8.9223959,14.1336845
106,80,Hg,7.8882605,-8.656119,185.969362061,18.3369079,5.7845146000000005,5.2044457,-13.8581617,0.860114,-16.8526323,10.4267261,3.9698802,-32.6405895,12.4904621,6.5164838000000005,12.880540000000002
105,81,Tl,7.8375161,-5.2020427,185.978654787,19.142221000000003,4.142168,5.9961199,-16.737442599999998,4.6862388,-16.4130466,8.196513300000001,0.9882601,,17.1726542,8.785770699999999,15.954949800000001
104,82,Pb,7.805342,-11.5353999,185.984239409,19.771947100000002,2.9140522,6.471072100000001,-18.7824278,4.2137826,-20.516000000000002,11.2110039,2.2121237000000002,,12.9132648,6.7704192,14.7701603
103,83,Bi,7.739117500000001,-7.2470279,185.996623169,20.543,0.8400844,7.7567999,,9.3232763,,8.981,-1.106743,,18.616896,9.2985658,19.0881662
102,84,Po,7.6959488,,186.004403174,,-0.5751747,8.501171200000002,,8.353770899999999,,,0.9520000000000001,,13.558,,17.3279407
116,71,Lu,7.923,5.23,186.970188,9.952,,,9.126,,0.583,5.521,,13.447000000000001,11.422,9.695,
115,72,Hf,7.947,3.896,186.964573,10.823,19.098,-0.425,6.904,,-2.464,4.647,9.969,8.219,11.671,8.164,5.247
114,73,Ta,7.9632123,3.0084937000000003,186.960391,11.643815,17.513,0.3956483,4.3209985,-13.864,-2.4582658000000004,6.3592658,7.7603071,2.6538267,12.1350615,9.467958000000001,5.051
113,74,W,7.9751168,1.3125048,186.957161249,12.6588087,16.1621813,0.9545871,1.3149715000000002,-10.768800800000001,-6.0480414,5.4667595,8.5854125,-3.2186821,12.2011345,7.7994642999999995,7.2418113
112,75,Re,7.9779519,0.0024667,186.955752217,13.5401371,14.4001194,1.6520823,-1.6671718000000002,-9.8979173,-6.2878348,7.3605462,5.9969173,-8.1877681,12.8821297,9.3529595,7.2693065
111,76,Os,7.9737814,-1.6696385,186.955749569,14.5557431,12.409086100000001,2.7217317,-4.5336536,-5.999384,-10.1179828,6.2903015,6.5806659000000005,-13.1005061,13.3108394,7.8648595,10.1328398
110,77,Ir,7.960669200000001,-2.8640151,186.957542,15.3564551,10.308271300000001,3.8353702,-6.5205963,-4.9110274,-9.756247400000001,8.4483443,3.838316,-17.1047846,13.9673386,9.5672439,10.3168449
109,78,Pt,7.9411699,-3.6565811,186.960616646,16.1398537,8.4573955,4.5534825,-8.5668524,-0.9743009,-13.041823500000001,6.8922322000000005,4.8019822,-21.6984064,14.361003199999999,7.7895489,13.213606100000002
108,79,Au,7.917432300000001,-4.910271300000001,186.964542147,17.3132667,7.271164799999999,4.7484422,-10.5841883,-1.1454011000000002,-12.561039500000001,9.3852424,2.4533041,-26.645505099999998,14.3701706,9.1677613,12.228477100000001
107,80,Hg,7.8869905000000005,-5.673917,186.96981354,18.077494299999998,6.0083073,5.229771800000001,-13.131553900000002,2.4569672000000002,-16.3068872,7.650768200000001,3.6926241,-30.942317,14.450447700000002,7.0642601,14.8603796
106,81,Tl,7.8524650000000005,-7.457637,186.97590474,18.8294836,5.1643844,5.3219796,-16.0613168,1.9812929,-15.8350129,10.6329702,1.1945043000000002,,14.4498658,8.764250200000001,13.520524100000001
105,82,Pb,7.808401,-8.6036798,186.983910842,19.5883799,3.3812464,6.3927844,-17.810762999999998,6.2631327,-19.9127759,8.377375899999999,2.3929863,,15.4815965,6.760455100000001,17.0042342
104,83,Bi,7.758208300000001,-9.2070832,186.993147272,20.29,1.2034728000000001,7.7790701,,6.2106935000000005,-18.556124,11.309096100000001,-1.0086509,,15.8687431,9.532366099999999,16.1464819
103,84,Po,7.7047889,,187.003031482,,0.2129229,7.978899900000001,,10.2157341,,9.349040800000001,1.3196659,,15.77,6.433,19.521796300000002
117,71,Lu,7.9030000000000005,7.009,187.974428,9.643,,,10.09,,1.109,4.122,,15.197000000000001,,9.524000000000001,
116,72,Hf,7.936,3.08,187.966903,10.548,,-0.654,7.838,,-2.005,5.901,10.349,10.308,10.201,7.995,3.297
115,73,Ta,7.948,4.758,187.963596,11.445,18.168,-0.035,5.107,-13.429,-2.077,5.086,8.199,4.4350000000000005,13.225,9.274000000000001,5.697
114,74,W,7.9690532,0.34900000000000003,187.958488325,12.301914199999999,16.8216085,0.4066565,2.4694209000000003,-12.957,-5.52265,6.8351547,9.0613014,-0.8469108,10.6505289,7.590546000000001,5.2983263
113,75,Re,7.9667481,2.1204209,187.958113658,13.2321961,14.9872202,1.3976565,-0.6719248,-9.4103014,-5.8691832999999995,5.87165,6.401807799999999,-6.645565700000001,14.202528899999999,9.235046,8.023893000000001
112,76,Os,7.9738656,-2.7923457,187.955837292,14.2799057,13.2066412,2.1432356,-3.3163317,-8.5222287,-9.6592427,7.9896042,7.2097239,-10.93895,11.500826100000001,7.5458014,7.896972
111,77,Ir,7.9548512,-0.523986,187.958834999,15.3152413,10.9955773,3.449948,-5.9736409,-4.4173782,-9.7309121,6.8668968999999995,4.4149115000000005,-16.0085528,15.3658832,9.3250078,11.1204942