N,Z,element,be_per_a,beta_decay_energy,atomic_mass,s2n,s2p,qa,q2b,qep,qbn,s1n,s1p,q4b,qda,qpa,qna
20,27,Co,7.401,,47.011133,,-1.042,,,15.651,,,-2.1710000000000003,,7.319,,8.987
32,16,S,7.545,17.042,48.0137,3.721,,-18.176000000000002,35.043,,14.47,2.68,24.238,56.986000000000004,0.503,2.0260000000000002,-19.082
31,17,Cl,7.883,18.001,47.995405,6.563,41.828,-17.156,28.004,-41.279,13.015,2.572,18.939,40.224000000000004,6.091,4.573,-14.234
30,18,Ar,8.242132,10.00314,47.97608,8.651040000000002,37.199,-15.50202,21.94329,-36.94,5.359319999999999,4.98632,19.791,26.21137,2.2888699999999997,0.84526,-12.64535
29,19,K,8.434232,11.940153,47.965341186,13.013190000000002,33.00302,-14.32487,12.219370000000001,-29.794,1.9886199999999998,4.64382,14.20711,12.19322,8.19926,2.35037,-8.375530000000001
28,20,Ca,8.666686,0.27921300000000004,47.952522904,17.2279,29.02964,-13.97629,4.26808,-26.14726,-7.959350000000001,9.95153,15.801620000000002,-1.40261,1.9001,-2.74494,-8.80743
27,21,Sc,8.656204,3.9888660000000002,47.952223157,18.88526,23.66786,-11.14727,-0.02615,-16.080840000000002,-7.6378,8.23856,9.44839,-15.2075,9.34633,1.17239,-2.2418
26,22,Ti,8.723006,-4.015015,47.947940932,20.507540000000002,19.93129,-9.448950000000002,-5.67069,-13.43726,-14.55741,11.62666,11.44508,-30.493000000000002,3.9793200000000004,-2.55676,-2.03413
25,23,V,8.623061,-1.655673,47.952251229,23.54498,17.29442,-9.086620000000002,-15.181360000000002,-7.43007,-17.986430000000002,10.54239,6.8293,-45.977000000000004,10.36091,-0.6038,2.2406
24,24,Cr,8.572269,-13.525682000000002,47.954028667,29.493090000000002,13.27216,-7.69837,-24.822,-5.17363,-28.32696,16.33076,8.10437,-59.615,4.96414,-6.07195,1.83422
23,25,Mn,8.274185,-11.296,47.968549085,32.869,6.79893,-7.60487,-30.796,5.42131,-30.498,14.80128,2.02273,,10.886030000000002,-4.917479999999999,8.23608
22,26,Fe,8.023,-19.5,47.980676,35.053,3.107,-7.065,-34.793,9.273,-36.442,19.202,2.723,,5.28,-7.886,7.1610000000000005
21,27,Co,7.6000000000000005,-15.293000000000001,48.00161,,0.509,-7.955,,16.777,,16.942,-1.081,,11.3,-7.398000000000001,12.396
20,28,Ni,7.265000000000001,,48.018028,,-1.3051700000000002,,,16.374,,,0.866,,,,8.678
33,16,S,7.385,20.153,49.022644,2.42,,-18.822,38.283,,17.302,-0.26,,62.393,2.094,2.987,
32,17,Cl,7.781000000000001,18.13,49.001009,5.423,43.348,-17.085,30.551000000000002,,15.15,2.851,19.111,47.501,4.281,5.464,-16.383
31,18,Ar,8.135,12.422,48.981546,7.966,39.138,-15.625,24.11,-37.24,7.023000000000001,2.98,20.199,31.374000000000002,3.301,1.534,-11.883000000000001
30,19,K,8.372273999999999,11.688274999999999,48.968210755,10.04215,34.410000000000004,-13.77386,16.94977,-32.62,6.5418199999999995,5.39833,14.61912,18.35044,6.46565,5.02549,-10.105690000000001
29,20,Ca,8.594844,5.2615,48.955662875,15.09798,30.51137,-13.95388,7.26402,-26.3074,-4.86724,5.14645,16.30426,4.03329,5.12302,-1.02179,-5.88044
28,21,Sc,8.686256,2.002522,48.950014423,18.3673,25.42723,-12.370540000000002,1.40067,-21.565759999999997,-6.13987,10.12874,9.62561,-8.940629999999999,6.49396,1.44215,-5.50094
27,22,Ti,8.711157,-0.6018560000000001,48.947864627,19.769060000000003,20.797310000000003,-10.176530000000001,-3.23073,-11.628129999999999,-12.15741,8.1424,11.34892,-23.81306,6.48361,-1.93851,0.22197999999999998
26,23,V,8.682908,-2.628871,48.948510746,22.09795,18.20328,-9.314950000000001,-10.341299999999999,-10.74706,-13.21123,11.55555,6.75819,-38.082,7.68624,1.0299200000000002,-0.55431
25,24,Cr,8.613291,-7.712426000000001,48.951332955,26.91312,14.97364,-8.74814,-20.582330000000002,-4.12932,-24.108040000000003,10.582360000000001,8.14434,-53.533,7.38436,-3.39365,4.441140000000001
24,25,Mn,8.439929000000001,-12.869907,48.959612585,31.19689,10.19196,-8.15953,-27.740000000000002,-0.43191,-27.692,16.39561,2.08758,,7.65275,-3.28501,5.10112
23,26,Fe,8.161311,-14.870000000000001,48.973429,34.024,4.76609,-7.66084,-32.951,10.78232,-34.322,14.822000000000001,2.74336,,8.52645,-7.317,10.36724
22,27,Co,7.8420000000000005,-18.080000000000002,48.989393,36.393,1.8920000000000001,-7.055,,12.127,-34.745,19.451,-0.8310000000000001,,7.7,-5.926,8.336
21,28,Ni,7.457,,49.008803,,-0.492,-7.987,,18.911,,16.665,0.589,,8.540000000000001,,12.936
33,17,Cl,7.651,21.069,50.008309,4.123,,-17.655,33.468,,16.858,1.2710000000000001,20.642,52.287,5.689,5.234,-16.324
32,18,Ar,8.056000000000001,12.398,49.98569,7.191,40.669000000000004,-16.095,26.26,-41.711,8.21,4.211,21.559,38.102000000000004,1.661,1.314,-15.053
31,19,K,8.288582,13.861376,49.972380017,9.58601,36.026,-14.293370000000001,18.81953,-33.957,7.5006,4.18767,15.827,23.49617,7.26429,4.50254,-10.302
30,20,Ca,8.550163000000001,4.958158,49.957499217,11.50723,31.885830000000002,-12.241209999999999,11.842440000000002,-29.688000000000002,-1.09928,6.36078,17.2667,10.67285,3.40606,0.98681,-8.57648
29,21,Sc,8.633679,6.884278,49.952176415,16.18617,26.84085,-11.558370000000002,4.67663,-22.22486,-4.05491,6.05743,10.53659,-1.91979,10.38805,2.66109,-3.189
28,22,Ti,8.755718000000002,-2.207647,49.944785839,19.081590000000002,21.78497,-10.71721,-1.16959,-17.42087,-11.54105,10.93919,12.159370000000001,-16.9552,3.78299,-2.2310100000000004,-3.44084
27,23,V,8.695918,1.038059,49.947155845,20.88895,19.29811,-9.887709999999998,-6.59642,-9.95172,-11.96227,9.3334,7.9492,-31.594,9.9795,0.57741,0.75898
26,24,Cr,8.701032,-7.634477,49.946041443,23.58269,16.3473,-8.559190000000001,-15.785620000000002,-8.987260000000001,-20.71275,13.00033,9.589110000000002,-46.142,4.926430000000001,-3.3914,0.32169000000000003
25,25,Mn,8.532696,-8.151139,49.954237391,29.47389,12.72784,-7.97716,-24.997,-1.95463,-25.94819,13.078280000000001,4.58351,,10.90523,-3.2009600000000002,5.02542
24,26,Fe,8.354026,-16.846,49.962988,32.619,6.23238,-7.429810000000001,-30.356,3.5676300000000003,-32.667,17.79705,4.14479,,5.53069,-7.04603,5.732520000000001
23,27,Co,8.001,-13.51,49.981073,35.273,2.912,-7.486,,12.701,-33.902,15.821,0.169,,11.081,-5.897,10.582
22,28,Ni,7.716,,49.995577,37.056,0.6980000000000001,-7.455,,13.342,,20.391000000000002,1.5290000000000001,,5.091,-9.626,8.396
34,17,Cl,7.53,20.98,51.015341,2.7920000000000003,,-17.845,36.806,,19.548000000000002,1.5210000000000001,,57.519,3.908,6.393,
33,18,Ar,7.926,15.826,50.992818,5.643,42.361000000000004,-16.485,29.642,,10.967,1.432,21.719,43.043,3.081,2.454,-13.805
32,19,K,8.221349,13.816107,50.975827867,9.04734,38.034,-15.161,20.712490000000003,-37.545,9.00171,4.85967,16.475,29.68765,5.384,4.6292,-12.59
31,20,Ca,8.476913000000001,6.896381000000001,50.960995665,11.17517,33.72,-13.39088,13.400530000000002,-30.292,0.14376,4.8144,17.893430000000002,15.11909,3.9899899999999997,0.81623,-8.40457
30,21,Sc,8.596796000000001,6.5041530000000005,50.953592095,12.81005,28.19514,-9.94162,8.97516,-24.789810000000003,0.13166,6.75262,10.92843,5.01519,8.781889999999999,5.86,-5.29781
29,22,Ti,8.708988,2.4710050000000003,50.9466096,17.31168,23.01101,-9.81333,1.71856,-17.43258,-8.58014,6.37249,12.47443,-9.530280000000001,7.53923,-0.36494,0.13819
28,23,V,8.742099,-0.752447,50.943956867,20.38455,20.22052,-10.29216,-3.95996,-14.94543,-10.01309,11.05115,8.06115,-24.861700000000003,7.07075,1.1529200000000002,-2.0536
27,24,Cr,8.712005,-3.2075180000000003,50.944764652,22.26097,17.46555,-8.93895,-11.24884,-7.3087100000000005,-16.89512,9.26064,9.516350000000001,-39.552,7.2213400000000005,-2.1096500000000002,2.6877199999999997
26,25,Mn,8.633772,-8.041321,50.948208065,26.765880000000003,14.85989,-8.66217,-20.90173,-6.30883,-21.83874,13.6876,5.27078,,7.79999,-0.5578,1.88022
25,26,Fe,8.460759,-12.860412,50.956840779,31.59446,9.44744,-8.06489,-28.303,2.77055,-30.643,13.79742,4.863930000000001,,8.12889,-6.04216,8.265870000000001
24,27,Co,8.193254000000001,-15.442,50.970647,33.604,4.29945,-7.20069,,7.99648,-31.293,17.783,0.15466,,8.119390000000001,-4.478,7.600600000000001
23,28,Ni,7.875,,50.987225,36.242,1.727,-7.455,,15.288,,15.851,1.558,,8.691,-8.535,11.747
34,18,Ar,7.825,15.858,51.998626,4.093,,-16.466,32.986000000000004,,13.165000000000001,2.661,22.859,48.19,1.691,2.644,-16.726
33,19,K,8.115029,17.128639,51.981602,7.55241,39.455,-15.282,23.305650000000004,-38.717,11.123360000000002,2.69275,17.737000000000002,34.30614,6.9030000000000005,4.916,-12.431000000000001
32,20,Ca,8.429381,6.177013,51.963213648,10.81968,35.515,-14.40984,15.20355,-34.865,0.8911,6.00528,19.03904,21.15298,2.17239,0.20928,-11.43
31,21,Sc,8.533125,9.026541,51.956582351,12.038530000000002,29.29337,-10.58372,11.00049,-25.21605,1.21824,5.28591,11.39995,10.264,9.85675,5.72054,-5.185390000000001
30,22,Ti,8.691666999999999,1.973948,51.94689196,14.180790000000002,24.458540000000003,-7.67011,5.94942,-20.42649,-5.3373,7.8083,13.53011,-1.1394600000000001,5.78837,1.9555,-2.52365
29,23,V,8.714582,3.975473,51.944772839,18.36239,21.474330000000002,-9.364840000000001,-0.73649,-15.504059999999999,-8.06369,7.31124,8.9999,-17.08282,10.6987,1.98407,0.7639
28,24,Cr,8.775989,-4.711958,51.940504992,21.2998,18.56552,-9.351450000000002,-7.0888800000000005,-12.97538,-15.246680000000001,12.03916,10.504370000000002,-33.089,4.51558,-2.5932600000000003,-1.20905
27,25,Mn,8.670329,-2.37692,51.945563488,24.22232,16.06121,-8.65451,-16.346330000000002,-5.79241,-18.57605,10.53472,6.54486,-48.427,10.26559,-0.51017,2.90105
26,26,Fe,8.609574,-13.969413000000001,51.948115217,29.996540000000003,12.64623,-7.933260000000001,-26.001,-4.16794,-29.059540000000002,16.19913,7.37546,,5.00804,-5.84567,2.6491
25,27,Co,8.325886,-12.031,51.963112,32.873,6.3113,-7.48953,-32.081,6.59396,-30.532,15.09012,1.4473699999999998,,10.82631,-4.74617,8.90609
24,28,Ni,8.079,-20.049,51.976028,34.352000000000004,2.431,-6.7540000000000004,,10.584,,18.501,2.277,,6.011,-7.585,8.067
23,29,Cu,7.679,,51.997552,,-0.772,-6.205,,17.773,,,-2.331,,12.551,-5.6160000000000005,13.246
35,18,Ar,7.6770000000000005,19.086000000000002,53.00729,2.662,,-16.727,36.178,,15.857000000000001,0.001,,53.622,3.211,3.915,
34,19,K,8.022848,17.091983,52.9868,5.92216,41.164,-15.661,26.61109,,13.89923,3.22941,18.305,39.555339999999994,5.105,5.898,-14.389000000000001
33,20,Ca,8.330577,9.519103999999999,52.968451,9.19804,37.276,-14.623000000000001,17.443360000000002,-35.397,2.9842600000000004,3.1927600000000003,19.53905,25.89929,3.8393,1.2042000000000002,-10.412
32,21,Sc,8.495421,7.924253,52.958231821,11.82076,30.96855,-11.720229999999999,12.94425,-29.05815,2.4917,6.5348500000000005,11.92951,15.78331,8.1363,5.54647,-7.53256
31,22,Ti,8.630174,5.0200000000000005,52.949724785,13.240860000000001,25.076700000000002,-7.9562100000000004,8.45594,-19.85377,-3.45861,5.4325600000000005,13.67675,4.1164700000000005,7.10843,2.5803800000000003,-1.5954400000000002
30,23,V,8.71013,3.435938,52.944335593,15.789850000000001,23.20032,-7.71471,2.8390500000000003,-18.69675,-4.50314,8.478610000000002,9.670209999999999,-9.19163,8.59258,4.444649999999999,-1.65728
29,24,Cr,8.760198,-0.5968840000000001,52.940646961,19.978240000000003,20.132099999999998,-9.14813,-4.33947,-13.10615,-12.65103,7.93907,11.132200000000001,-25.65617,7.62765,-1.19893,1.7910599999999999
28,25,Mn,8.734174999999999,-3.7425859999999997,52.941287742,22.58887,17.064220000000002,-9.1531,-12.03069,-10.53532,-14.43107,12.05415,6.55984,-41.42,7.472090000000001,0.43601,0.18030000000000002
27,26,Fe,8.648799,-8.288101000000001,52.945305574,26.887610000000002,14.07408,-8.039390000000001,-21.31671,-2.81726,-24.6579,10.68848,7.5292200000000005,,8.00715,-3.45588,4.96094
26,27,Co,8.477658,-13.028604,52.954203217,31.45992,8.99349,-7.46371,-29.389,0.75888,-28.401,16.369790000000002,1.61804,,8.25393,-3.3189200000000003,5.61457
25,28,Ni,8.217074,-16.361,52.96819,33.874,4.00621,-7.30501,,11.41057,-35.422000000000004,15.372,2.55884,,8.42213,-7.136,10.492030000000002
24,29,Cu,7.894,,52.985754,,0.506,-5.815,,13.802,,19.061,-1.7710000000000001,,9.341000000000001,-4.2860000000000005,10.007
35,19,K,7.889,20.158,53.99463,4.007,,-15.167,28.889,,16.314,0.778,19.082,44.891,6.989,6.5520000000000005,-13.646
34,20,Ca,8.247496,8.730315000000001,53.972989,7.03695,38.459,-14.256,20.4614,-39.24,5.67491,3.8442,20.153830000000003,31.77418,2.68785,2.2196700000000003,-12.824
33,21,Sc,8.394681,11.731081,53.96361662,9.590250000000001,31.33121,-10.58797,16.00227,-28.88415,4.8688400000000005,3.0554099999999997,11.79217,21.66673,11.086170000000001,7.30546,-5.7283
32,22,Ti,8.597434999999999,4.271192,53.951022786,12.29479,25.93366,-8.45767,11.31278,-23.52325,-1.84224,6.86224,14.00414,10.632520000000001,5.532100000000001,2.4707600000000003,-3.6432800000000003
31,23,V,8.662043,7.041592,53.946437472,14.59204,24.02783,-7.77071,5.66446,-18.27534,-2.6774899999999997,6.11343,10.35108,-1.8832200000000001,10.287450000000002,4.703720000000001,-1.0180900000000002
30,24,Cr,8.777955,-1.377136,53.938878012,17.65816,22.04289,-7.928020000000001,-0.68026,-17.39267,-10.31597,9.71908,12.372670000000001,-17.65646,5.219810000000001,0.13313,-1.55553
29,25,Mn,8.737965,0.6968719999999999,53.940356429,20.99298,18.6918,-8.75853,-7.547680000000001,-10.995540000000002,-12.681420000000001,8.93883,7.5596000000000005,-34.147,10.572420000000001,0.75782,2.2926100000000003
28,26,Fe,8.736381999999999,-8.244547,53.939608306,24.06677,15.413200000000002,-8.417340000000001,-16.97619,-8.25647,-21.66639,13.378290000000002,8.85336,-49.983000000000004,5.16359,-3.14657,0.8432999999999999
27,27,Co,8.569217,-8.731646000000001,53.948459192,29.79164,11.88061,-7.807270000000001,-26.6,-0.60881,-26.45045,13.42184,4.35139,,11.03122,-2.94334,5.88032
26,28,Ni,8.393032,-17.868000000000002,53.957833,33.091,5.52589,-7.226770000000001,-33.006,4.38025,-34.08,17.718799999999998,3.90785,,5.79345,-7.0721099999999995,6.57065
25,29,Cu,8.048,-15.139000000000001,53.977015,35.273,1.627,-6.205,,13.96,,16.212,-0.931,,11.63,-4.646,11.578
24,30,Zn,7.753,,53.993267,,-1.48,-4.577,,16.07,,,0.291,,6.719,,11.274000000000001
36,19,K,7.788,19.058,55.00076,3.1390000000000002,,-16.007,30.867,,17.797,2.361,,49.853,4.628,6.852,
35,20,Ca,8.120000000000001,11.809000000000001,54.9803,5.105,39.719,-14.085,23.318,,7.469,1.2610000000000001,20.637,36.759,4.656,3.6510000000000002,-11.424
34,21,Sc,8.320955,11.508735000000001,54.967622601,7.395180000000001,32.44157,-10.06807,18.98523,-32.446,7.391310000000001,4.339770000000001,12.28774,27.553060000000002,9.93916,8.97097,-7.375319999999999
33,22,Ti,8.515979999999999,7.476497999999999,54.955267465,10.97966,26.85832,-7.7607,13.44162,-23.796470000000003,0.15377000000000002,4.11742,15.06616,15.81321,7.94953,3.63925,-1.7554200000000002
32,23,V,8.637692,5.9651250000000005,54.947241114,13.436160000000001,24.815720000000002,-8.340819999999999,8.56783,-22.54266,-0.28114,7.32273,10.81158,4.8853,8.39728,5.18929,-3.05491
31,24,Cr,8.731924000000001,2.602703,54.940837289,15.96535,22.85659,-7.8017900000000004,2.3715900000000003,-16.7767,-7.6234,6.24626,12.505510000000001,-9.77386,7.45216,1.19811,0.00651
30,25,Mn,8.765022000000002,-0.231114,54.938043172,19.164930000000002,20.43929,-7.93349,-3.6825300000000003,-15.10821,-9.52923,10.2261,8.06662,-26.077009999999998,8.28539,2.5708800000000003,-0.62224
29,26,Fe,8.746595,-3.451417,54.938291283,22.6764,16.772240000000004,-8.45482,-12.14545,-7.83551,-17.54266,9.29812,9.21264,-42.911,7.91962,-1.90996,3.58434
28,27,Co,8.669618,-8.694034,54.941996531,27.513090000000002,13.91771,-8.21092,-22.39448,-5.761220000000001,-22.82289,14.09125,5.06435,,7.62845,-0.8354600000000001,2.3238000000000003
27,28,Ni,8.49732,-13.700449,54.951329961,31.84766,8.96626,-7.55821,-30.765,3.62968,-31.997,14.128860000000001,4.61487,,8.03439,-6.1108400000000005,8.64092
26,29,Cu,8.233996,-17.065,54.966038,34.508,3.55391,-6.718170000000001,,9.08558,-33.435,18.296,-0.35394000000000003,,8.70623,-4.442,8.371950000000002
25,30,Zn,7.909,,54.984358,,-0.482,-5.096,,17.419,,16.37,0.449,,9.41,-7.426,13.406
37,19,K,7.664000000000001,21.825,56.00851,3.213,,,32.779,,18.206,0.852,,54.082,,6.0,
36,20,Ca,8.040000000000001,10.954,55.985079999999996,4.88,,-15.043000000000001,25.422,,8.19,3.619,21.895,41.387,1.815,3.262,-15.042
35,21,Sc,8.221727999999999,14.467788,55.97332,7.10399,34.428,-10.13955,21.30262,-32.849000000000004,8.74451,2.76422,13.791,32.05928,11.019129999999999,9.3995,-6.91014
34,22,Ti,8.46611,6.834833,55.95778819,9.840700000000002,28.7374,-7.4787,15.964950000000002,-28.259,1.75322,5.72328,16.449669999999998,21.287029999999998,5.28166,4.45082,-4.28594
33,23,V,8.574191,9.130120000000002,55.950450694,12.404340000000001,26.84192,-8.13652,10.75666,-23.2845,0.88351,5.0816099999999995,11.77576,9.885520000000001,10.17791,5.54024,-1.6016700000000001
32,24,Cr,8.723258,1.626538,55.940649107,14.492870000000002,24.24096,-8.2401,5.32208,-20.90588,-5.6438999999999995,8.24661,13.42939,-1.3774600000000001,5.31898,1.4301199999999998,-2.80754
31,25,Mn,8.738333,3.695544,55.938902947,17.49654,21.596310000000003,-7.89268,-0.87114,-15.05592,-7.5015600000000004,7.27044,9.0908,-18.26851,10.73403,3.23952,0.58592
30,26,Fe,8.790353999999999,-4.566680000000001,55.934935617,20.495220000000003,18.250259999999997,-7.612760000000001,-6.69954,-12.786340000000001,-14.648520000000001,11.1971,10.18364,-35.217,5.6613500000000005,-1.05291,0.32632
29,27,Co,8.694835999999999,-2.132863,55.93983815,24.173080000000002,15.06071,-7.75803,-17.39737,-5.61696,-18.775869999999998,10.08184,5.84807,-52.651,10.9249,-0.22882,4.29611
28,28,Ni,8.642779,-15.264511,55.942127872,30.77187,12.23098,-8.00209,-28.518,-3.71521,-30.34346,16.64301,7.1666300000000005,,4.81322,-6.384060000000001,2.68639
27,29,Cu,8.356227,-13.253,55.958515,33.375,5.21102,-6.70699,-35.253,8.09788,-32.144,15.07895,0.59615,,11.34609,-4.148149999999999,9.662799999999999
26,30,Zn,8.106,-22.0,55.972743,35.261,0.6890000000000001,-5.485,,12.657,,18.891000000000002,1.043,,6.731,-7.256,9.887
25,31,Ga,7.699,,55.996361,,-3.443,-3.5340000000000003,,20.957,,,-3.892,,13.593,,15.527000000000001
37,20,Ca,7.917,14.121,56.99262,4.667,,-16.09,27.041,,9.907,1.048,22.09,45.65,3.128,2.992,
36,21,Sc,8.151433,12.919758,56.97746,6.97916,36.282000000000004,-11.12507,23.41758,-36.212,10.25286,4.214930000000001,14.387,36.490379999999995,8.065,9.02876,-10.347
35,22,Ti,8.364370000000001,10.497817999999999,56.963590068,8.39018,30.143,-6.95284,18.60907,-27.307000000000002,4.16793,2.6669,16.35234,26.26621,6.95453,4.83932,-3.1086500000000004
34,23,V,8.534816999999999,8.111252,56.952320197,11.4115,28.832040000000003,-7.93156,13.072799999999999,-26.85016,2.80023,6.329890000000001,12.382370000000002,14.932110000000002,7.96544,6.07259,-4.87615
33,24,Cr,8.663394,4.961548,56.943612408999996,13.55763,25.43456,-8.11856,7.65714,-20.493630000000003,-3.68448,5.311020000000001,13.658790000000002,3.55913,7.33069,2.23253,-1.2563199999999999
32,25,Mn,8.736713,2.695589,56.938285968,15.91647,22.919610000000002,-8.06011,1.85931,-18.62034,-4.95049,8.646030000000001,9.490219999999999,-10.17736,8.33427,4.31257,-1.9466800000000002
31,26,Fe,8.770279,-0.836276,56.935392134,18.843169999999997,19.65007,-7.3197600000000005,-4.09801,-12.18581,-12.21275,7.64607,10.559270000000001,-27.632,8.24138,0.23984,2.39933
30,27,Co,8.741882,-3.261731,56.936289913,21.45832,16.211090000000002,-7.08036,-12.03668,-9.723,-13.50934,11.376479999999999,6.02745,-44.335,8.846540000000001,1.77299,1.85847
29,28,Ni,8.670933000000002,-8.774947000000001,56.939791525,26.89062,13.18047,-7.5612200000000005,-23.534,-2.76572,-25.51212,10.247610000000002,7.3324,,8.65686,-3.20982,5.81707
28,29,Cu,8.503262000000001,-14.759,56.949211819,31.816119999999998,7.85694,-7.07437,-32.299,1.44255,-29.990000000000002,16.73717,0.69032,,8.737770000000001,-3.1665200000000002,6.34747
27,30,Zn,8.231,-17.54,56.965056,34.122,1.792,-5.344,,14.068,-37.232,15.232000000000001,1.196,,9.796,-6.276,12.375
26,31,Ga,7.909,,56.983886,,-2.047,-4.165,,16.344,,19.692,-3.091,,10.271,-3.874,12.047
38,20,Ca,7.835,12.957,57.99794,4.164,,,29.191,,11.006,3.116,,50.073,0.865,2.237,
37,21,Sc,8.045,16.234,57.98403,6.166,37.381,-12.299,25.526,,10.968,1.951,15.291,40.952,9.733,8.339,-9.937
36,22,Ti,8.311,9.292,57.966602,7.933,31.79,-8.374,20.882,-31.525000000000002,5.232,5.266,17.403,31.045,4.453,3.9130000000000003,-7.113