N,Z,element,be_per_a,beta_decay_energy,atomic_mass,s2n,s2p,qa,q2b,qep,qbn,s1n,s1p,q4b,qda,qpa,qna
55,49,In,8.435238,-4.5556174,103.918214538,21.6304151,8.5139152,-0.4696211,-16.888,1.3310567000000002,-17.162,9.6215957,2.8200194,,14.1878339,4.5178461,10.7981117
54,50,Sn,8.3839114,-12.332,103.923105195,22.8347977,6.5452978,0.1426223,-22.0002266,1.735598,-23.028000000000002,12.606,4.2836312,,9.7786454,1.7818994000000001,9.855810600000002
53,51,Sb,8.258000000000001,-9.668000000000001,103.936344,24.337,3.178,2.458,,8.049,,10.696,-0.508687,,16.351,5.875,14.897
67,38,Sr,8.152000000000001,12.38,104.959001,7.053,,-12.035,23.268,,7.8180000000000005,2.5020000000000002,18.029,39.14,5.681,3.926,
66,39,Y,8.262,10.888,104.945711,8.255,31.988,-10.427,19.346,-30.409,7.0760000000000005,4.561,14.099,31.716,7.421,6.453,-7.671
65,40,Zr,8.358598,8.4572728,104.934021832,9.7919164,28.756,-8.5582752,15.8725139,-24.988,2.2814048,3.8119319000000003,14.667,24.4762692,7.7095668,4.5784228,-3.6525603
64,41,Nb,8.431692499999999,7.4152411,104.924942577,11.0295152,26.0364551,-7.2856759,12.370756799999999,-23.125,2.3568831,6.1758681,11.4868577,17.9357235,8.604254000000001,6.5299355,-3.0965031
63,42,Mo,8.494862999999999,4.9555157,104.91698198899999,12.5190923,24.0997363,-6.5947166,8.603755300000001,-18.9020988,-2.9031367,5.058358,12.808762100000001,11.087117200000002,8.408686900000001,3.8315324,-0.10295850000000001
62,43,Tc,8.5346074,3.6482396,104.911662024,13.825019200000002,21.835578,-5.819731300000001,5.5649667,-17.7642779,-2.261858,7.858652500000001,9.2315267,4.7845450000000005,9.3788351,6.1386175000000005,-0.3416363
61,44,Ru,8.561901599999999,1.9167271000000001,104.907745478,14.8100114,19.5581536,-4.8395072,2.4833619,-12.8797663,-7.046517,5.9100975,10.724545,-1.6006935000000002,9.380184400000001,3.5024336,3.2727249
60,45,Rh,8.572705299999999,0.5666346999999999,104.905687787,15.9622007,17.8252919,-3.9315933000000003,-0.7804217,-12.6412722,-6.5274652,8.9632442,7.044477700000001,-8.210687900000002,10.1267046,6.1192199,2.3680535000000003
59,46,Pd,8.5706509,-1.3470564,104.905079479,17.103560700000003,15.7286793,-2.8847080000000003,-4.0840553,-7.6111124000000006,-11.3727529,7.0941,8.7475319,-15.0799033,10.324607700000001,3.2294665,6.3349322
58,47,Ag,8.550370800000001,-2.7369989,104.906525604,18.410782100000002,13.6170851,-2.0833363,-7.4302663,-7.4004755,-11.1737752,10.0256965,4.9646966,-23.0553573,11.0969389,5.6961698,5.358869800000001
57,48,Cd,8.5168532,-4.6932673000000005,104.909463893,19.8248593,11.4548114,-1.3266206,-10.995848,-2.2276976,-16.2224929,8.4367762,6.5063505,-31.522340800000002,11.17966,2.7769073,9.215515799999999
56,49,In,8.4647045,-6.302580700000001,104.914502322,21.1508212,9.415821900000001,-0.7311138,-15.625091000000001,-1.8130832000000001,-16.084843,11.5292255,2.9611619,,11.7218512,4.8831746,8.2525216
55,50,Sn,8.397229,-9.3225103,104.921268421,22.388,7.264317200000001,0.0735483,-20.5264928,3.3414188,-22.115000000000002,9.782262300000001,4.4442978,,12.0052026,2.2209494,11.9681023
54,51,Sb,8.3009923,-11.2039825,104.931276547,23.488,3.9610362,2.1044944,,4.8782125,-22.4599786,12.792,-0.322595,,13.788,5.783459700000001,12.3258067
53,52,Te,8.1868368,,104.943304516,,0.297,5.0691999,,11.5265775,,11.2559961,0.806,,14.57,3.152,17.769789199999998
68,38,Sr,8.114,11.49,105.963177,6.683,,,24.449,,8.198,4.181,,41.828,3.861,3.724,
67,39,Y,8.215,12.959,105.950842,7.853,32.918,-10.963000000000001,20.412,,7.597,3.2920000000000003,14.889000000000001,33.986000000000004,8.68,6.354,-6.984
66,40,Zr,8.33,7.453,105.93693,9.174,29.568,-9.015,17.379,-27.848,3.095,5.362,15.468,27.574,6.041,4.572,-5.823
65,41,Nb,8.3932657,9.9253249,105.928928505,10.5343178,26.701,-7.4549528,13.5735743,-22.922,3.0567913,4.3584497,12.0333756,20.1599781,10.225788699999999,6.4703705000000005,-2.0992425
64,42,Mo,8.479520200000001,3.6482494,105.918273231,11.9268915,24.988285400000002,-6.971492100000001,10.195249400000002,-21.9587005,-1.9130178000000002,6.8685336,13.501427600000001,13.779539699999999,6.3938004,3.7647195000000004,-2.6726074
63,43,Tc,8.506557,6.547,105.914356674,13.419919700000001,22.5431981,-5.902903500000001,6.5864038,-17.149677,-1.9130277000000002,5.5612672000000005,9.734436,7.1661469,11.2783022,6.0421341,0.8988172
62,44,Ru,8.5609406,0.039403799999999996,105.907328181,14.3701252,20.5574469,-5.1873028,3.5842904,-16.281436,-6.543300500000001,8.460027700000001,11.3259202,0.8089003,6.8865235,3.1447229,0.27748110000000004
61,45,Rh,8.5539317,3.5448865,105.907285879,15.545948500000002,18.4416295,-4.2146509,0.5797431000000001,-11.365324000000001,-6.0160696,6.5827043000000005,7.7170845,-5.7545066,12.4439142,5.7685665,3.8876661
60,46,Pd,8.5799934,-2.9651434,105.903480287,16.655056100000003,16.3897215,-3.226024,-2.77539,-11.261970999999999,-10.908012500000002,9.5609561,9.3452439,-12.5538453,7.7626081000000005,2.9882178,3.0060268999999997
59,47,Ag,8.5446397,0.18975340000000002,105.906663499,17.9685656,14.5609976,-2.5839992,-6.334249700000001,-6.380100400000001,-10.679868,7.9428691,5.8134657,-20.4690982,13.1635305,5.378636,6.7357082
58,48,Cd,8.5390492,-6.5240031,105.906459791,19.3063977,12.3149721,-1.6541057000000001,-9.7784553,-6.003219100000001,-15.562888800000001,10.8696215,7.3502754999999995,-28.9123939,8.6951242,2.5346047,5.9712296
57,49,In,8.4701213,-3.2544521,105.913463596,20.5681112,10.0696219,-0.7863640000000001,-14.1348485,-0.8262724,-15.3414664,9.038885700000002,3.5632713,-37.309,14.071048600000001,4.9075318,9.840954900000002
56,50,Sn,8.4320383,-10.8803964,105.916957394,21.8692765,7.9632484,-0.1189119,-19.133938699999998,-0.3088192,-21.4095245,12.0870142,5.002086500000001,,9.5397841,2.1427547,8.9443309
55,51,Sb,8.3220124,-8.2535423,105.928637979,23.321,4.8685687,1.7966786,-23.174,5.8783099000000005,-21.7331107,10.529128199999999,0.4242708,,15.864563,5.4830000000000005,13.805498
54,52,Te,8.2367682,-14.92,105.937498521,24.7355644,1.1706438000000001,4.2902208,,7.8292714,,13.4795684,1.4932389000000001,,11.786,3.315,14.519
69,38,Sr,8.057,13.72,106.969672,6.203,,,25.77,,9.469,2.021,,44.295,,4.064,
68,39,Y,8.178,12.05,106.954943,7.543,,-11.235,21.753,,8.708,4.251,14.959,36.78,6.931,6.6530000000000005,-8.874
67,40,Zr,8.284,9.704,106.942007,8.704,30.408,-9.165000000000001,18.525000000000002,-27.009,4.111,3.342,15.519,29.842000000000002,7.261,4.924,-4.614
66,41,Nb,8.3670898,8.8211703,106.931589685,9.9508942,27.732,-7.6916869,15.026162399999999,-25.222,4.3328805,5.592444400000001,12.263,23.1399066,8.4452762,6.8579105,-3.998
65,42,Mo,8.442219,6.2049921,106.92211977,11.3568234,25.6646433,-7.160897200000001,11.317590599999999,-21.085,-0.8400404,4.4882897999999996,13.6312677,15.827679,8.0813787,4.1300769,-1.1809128
64,43,Tc,8.4928979,5.1125985,106.915458437,12.6062997,23.4123625,-6.1462153,8.113744200000001,-19.8362598,-0.49803250000000004,7.0450325000000005,9.9109349,9.656732700000001,9.2916277,6.457836,-1.2925682
63,44,Ru,8.5333676,3.0011457,106.909969837,14.070658700000001,21.109720000000003,-5.3331499,4.5100884,-15.0235334,-5.5712272,5.610631000000001,11.375284,3.1277600000000003,9.134544900000002,3.5004587000000003,2.1275844000000004
62,45,Rh,8.554103999999999,1.5089427000000002,106.906747975,15.1550773,19.15535,-4.6847068,1.5429884,-14.376429700000001,-5.0274864,8.572372900000001,7.8294296999999995,-3.2970443,9.781638800000001,6.0961075000000005,1.28166
61,46,Pd,8.5608946,0.0340458,106.905128058,16.0973852,17.0160531,-3.5304021,-1.3823284000000002,-9.3383724,-9.5015725,6.536429,9.2989686,-9.8604151,10.1894232,3.4507453,5.369511800000001
60,47,Ag,8.5539012,-1.4163741,106.905091509,17.4784873,15.1333717,-2.79991,-4.8400327,-9.3330144,-9.3458648,9.5356183,5.788127800000001,-17.7534512,10.7220122,5.8524785,4.199046500000001
59,48,Cd,8.5333524,-3.4236586000000004,106.906612049,18.7991122,13.150362800000002,-1.9582611,-8.4780867,-4.3717537,-14.4534938,7.929490700000001,7.336897100000001,-26.333000000000002,10.791329900000001,2.9901997000000002,8.0511996
58,49,In,8.494043900000001,-5.0544281,106.910287497,20.068720900000002,11.073760700000001,-1.1888804,-12.9134185,-3.9132386,-14.2842874,11.0298353,3.7234852000000003,-34.137,11.4779895,5.2657795,7.1962052000000005
57,50,Sn,8.4394946,-7.8589903,106.915713649,21.316873500000003,8.7563315,-0.2855283,-17.855,1.330943,-20.110255700000003,9.229859300000001,5.193060099999999,,11.839150400000001,2.534491,11.1025547
56,51,Sb,8.3587344,-9.996,106.924150621,22.7803935,5.5906085,1.5542327,-21.224,2.6659302,-20.5048076,12.2512653,0.5885218999999999,,13.39556,5.837864,11.1758284
55,52,Te,8.258000000000001,-11.227,106.934882,23.988,1.897,4.0103533,,9.408,-25.429000000000002,10.509,1.473,,14.069,3.5016663,16.616
54,53,I,8.146,,106.946935,,-0.008,4.816,,9.755,,14.201,-1.5010000000000001,,14.093,5.061,15.511000000000001
69,39,Y,8.129,14.17,107.960515,7.132000000000001,,-11.755,22.765,,9.169,2.8810000000000002,15.819,39.143,8.231,6.274,
68,40,Zr,8.253,8.595,107.945303,8.343,31.227,-9.615,19.799,-29.989,4.703,5.001,16.269000000000002,32.711,5.551,4.484,-7.113
67,41,Nb,8.3256604,11.2040998,107.936075604,9.485155500000001,28.333000000000002,-7.890000000000001,16.377632900000002,-24.864,4.928459200000001,3.8927111,12.814,25.4859581,9.915000000000001,6.7771313,-3.329
66,42,Mo,8.4221581,5.173533000000001,107.924047508,10.7639305,26.578,-7.4565535,12.9121066,-24.018,-0.0706486,6.2756407,14.314464000000001,18.7749178,6.1641878,4.0303043,-3.6446215000000004
65,43,Tc,8.4628172,7.7385736,107.918493493,12.289214099999999,24.298094400000004,-6.5367498,9.1083252,-19.487997,-0.1315831,5.2441816,10.6668267,11.683961,10.9159797,6.2720123,-0.36088180000000003
64,44,Ru,8.5272267,1.3697517000000001,107.910185793,13.4807877,22.1113431,-5.7425722,5.8628112,-18.4054003,-4.8690109,7.8701566000000005,12.2004082,5.591018600000001,6.8256555,3.4889544999999997,-0.6842142
63,45,Rh,8.532665699999999,4.4930596,107.908715304,14.8111355,19.832845300000002,-4.957102600000001,2.5756358,-13.570159799999999,-4.729819900000001,6.2387626,8.4575613,-0.9113275,12.0029038,5.7674424,2.9015497999999997
62,46,Pd,8.567024100000001,-1.9174238000000001,107.903891806,15.7593086,17.7789049,-3.8533676999999997,-0.27179270000000005,-12.9506209,-9.1888337,9.2228795,9.9494752,-7.454266400000001,7.5492481,3.19111,2.0567298000000003
61,47,Ag,8.5420262,1.6456311000000001,107.905950245,16.8070282,15.822077300000002,-3.0723634000000004,-3.4869632999999998,-8.0320514,-8.687784100000002,7.27141,6.5231087,-15.1614506,13.0115584,5.6751685,5.890880699999999
60,48,Cd,8.5500196,-5.1325944,107.904183588,18.262905900000003,13.9228219,-2.2822156000000002,-7.1824737999999995,-8.1687398,-13.7570738,10.3334152,8.134694099999999,-23.4707463,8.4007838,2.682481,4.8118843
59,49,In,8.4952516,-2.0498794,107.909693654,19.6543147,11.755371,-1.4282741,-11.674487300000001,-3.0020997000000005,-13.6789075,8.6244794,4.4184738,-31.349,13.7231316,5.0780764,8.5974223
58,50,Sn,8.4690273,-9.6246079,107.91189429,20.8588874,9.5157381,-0.5264734,-16.288272499999998,-2.3685944,-19.4880184,11.6290281,5.792253,-39.4375923,9.2490079,2.4346885,7.9103028
57,51,Sb,8.3726666,-6.663664600000001,107.922226731,22.1146758,6.415133300000001,1.3124179,-19.674,3.832355,-19.86,9.8634105,1.2220732,,15.6191637,5.7567157,12.8416434
56,52,Te,8.303722100000002,-13.011000000000001,107.929380469,23.704553500000003,3.0059209,3.420465,-23.1493198,5.4415914,-24.423000000000002,13.196,2.4173989000000002,,11.4024319,3.09787,13.202727300000001
55,53,I,8.176,-10.139,107.943348,25.614,0.876,4.098666199999999,,10.593,,11.413,-0.5969999,,16.159,4.904,16.891000000000002
70,39,Y,8.089,13.25,108.965131,6.6530000000000005,,,24.21,,10.398,3.7720000000000002,,41.803000000000004,6.481,6.684,
69,40,Zr,8.204,10.96,108.950907,7.852,32.057,-9.964,20.929000000000002,,5.744,2.851,16.239,35.009,6.9510000000000005,4.925,-5.783
68,41,Nb,8.2971307,9.9694851,108.939141,9.1086311,29.297,-8.545,17.5930289,-27.199,5.9881798,5.215920000000001,13.029,28.309451400000004,8.041,6.924,-5.253
67,42,Mo,8.381416300000001,7.6235438,108.928438318,10.256945900000002,27.217000000000002,-7.6259268,14.0791706,-22.998,1.1922278,3.9813053000000003,14.4030581,20.947199100000002,7.7753269000000005,4.4074488,-2.2640000000000002
66,43,Tc,8.4441796,6.4556267,108.920254107,11.6754977,25.136966,-6.7921978,10.7164225,-22.026601900000003,1.3072575,6.431316,10.8225021,14.4366022,8.9729534,6.7092298,-2.4337481
65,44,Ru,8.496227999999999,4.2607958,108.913323707,13.0185259,22.7714225,-5.8325835,6.8680285,-17.278128799999998,-3.7786174999999997,5.1483692,12.1045958,7.7658753,8.7223188,3.9018525,1.0359501
64,45,Rh,8.5281404,2.6072327,108.908749555,14.2781759,20.827226200000002,-5.137863500000001,3.7201797,-16.365391600000002,-3.5463538,8.0394133,8.626818,1.4902748,9.574121499999999,6.188056700000001,0.42340370000000005
63,46,Pd,8.5448825,1.1129468999999999,108.905950576,15.376466,18.321860400000002,-4.0968567,0.8978468000000001,-11.2340507,-8.0710103,6.1535865,9.8642991,-4.9763032,9.9680345,3.6202278000000003,4.363171
62,47,Ag,8.5479155,-0.21510020000000002,108.904755778,16.4553672,16.4336616,-3.2930765,-2.2299049,-10.977246,-7.538326100000001,9.1839572,6.4841864,-12.4684442,10.3640302,6.0521674,3.2896279
61,48,Cd,8.5387646,-2.0148047,108.904986697,17.6566411,14.709618800000001,-2.5113416,-5.874149999999999,-6.2690863,-12.4558203,7.323225900000001,8.18651,-20.788931100000003,10.6131762,3.3021241,7.0496146
60,49,In,8.5131027,-3.8593453,108.907149679,19.065495,12.6607683,-1.8435933,-10.238539300000001,-6.1717053,-12.490895,10.4410156,4.5260742,-28.817020499999998,11.2116067,5.5066822,6.099275800000001
59,50,Sn,8.4705183,-6.379194000000001,108.911292857,20.2605778,10.2177971,-0.7212469,-14.9147811,-0.6667289,-18.256157599999998,8.631549699999999,5.7993233,-36.46063410000001,11.6472935,2.8420243999999997,10.148374599999999
58,51,Sb,8.4048161,-8.5355871,108.918141203,21.7403741,7.2622617,0.9646798,-18.5784812,0.5798707000000001,-18.5406282,11.8769636,1.4700087000000002,,12.972059300000002,5.966766300000001,10.0035654
57,52,Te,8.3193305,-10.0428941,108.927304532,23.201,3.7811028,3.1976861,-21.545853,7.065578400000001,-23.016000000000002,10.005041199999999,2.5590295999999997,,13.6486561,3.621957,15.2847004
56,53,I,8.2200164,-11.5029589,108.938086022,24.385,1.597199,3.9180699,,7.4838645,-23.1114668,12.973,-0.8201999,,13.695,5.4113088,14.4471981
55,54,Xe,8.1073071,,108.950434955,,0.09,4.2170463,,12.3231588,,11.608507900000001,0.687,,13.971,1.994,17.696614699999998
70,40,Zr,8.171,10.09,109.954675,7.413,,-10.344,22.316,,6.399,4.561,17.029,37.853,5.271,4.614,-8.323
69,41,Nb,8.255260700000001,12.2259002,109.943843,8.9073528,30.108,-8.944,18.7246492,-27.119,6.278052300000001,3.6914328000000003,13.869,30.5187785,9.351,6.574,-4.6930000000000005
68,42,Mo,8.359293,6.4987491,109.930717956,9.9291532,28.164,-8.211,15.5368145,-26.095,1.6756959,5.9478479,15.134986000000001,23.7950899,5.7201902,4.0520453000000005,-4.869
67,43,Tc,8.4112603,9.038065399999999,109.923741263,11.2543692,26.067308,-7.2568012,11.7941292,-21.633735,1.6325736,4.8230531,11.664250000000001,16.422742600000003,10.4255409,6.3744665000000005,-1.6643568
66,44,Ru,8.4863123,2.7560638,109.914038501,12.5538611,23.9012737,-6.3695417,8.2582754,-20.7023154,-3.1446961,7.4054918,13.0787716,10.2753405,6.5610085,3.5413932,-1.8812519
65,45,Rh,8.5042551,5.5022116,109.911079745,13.9401732,21.4838044,-5.4773562,4.6286134,-15.834835400000001,-3.2935271,5.9007599,9.3792087,3.6412767,11.5435183,5.8979279,1.5676763
64,46,Pd,8.547163000000001,-0.8735982,109.905172878,14.949325199999999,19.247442500000002,-4.4325678,2.0170651,-14.8814203,-7.6827918,8.7957387,10.6206245,-2.4889119,7.4110583,3.396862,1.1780633
63,47,Ag,8.532108899999999,2.8906633000000004,109.906110724,15.9931508,17.0040926,-3.5195657000000002,-0.9873367,-9.7470263,-7.024293800000001,6.8091935999999995,7.1397935,-10.0075616,12.7777161,5.7794029,5.0528072
62,48,Cd,8.5512755,-3.878,109.90300747,17.238183000000003,15.4016963,-2.8653425,-4.505976899999999,-10.0304568,-11.9297618,9.9149571,8.917509899999999,-18.118149000000003,7.969629100000001,2.9227853,3.6710865
61,49,In,8.508908700000001,-0.6279769000000001,109.907170674,18.492777399999998,13.441120100000001,-1.9524858999999999,-9.020225,-5.0395099000000005,-11.911107099999999,8.0517618,5.2546101,-26.0021256,13.493260200000002,5.3844112,7.5831323
60,50,Sn,8.4960875,-8.392248,109.907844835,19.914679800000002,11.1675121,-1.1347556,-13.612172000000001,-4.6266331,-17.662324100000003,11.283130100000001,6.641437799999999,-33.919356099999995,8.9886427,2.5887296,6.7947351
59,51,Sb,8.4126821,-5.219924,109.916854283,21.147039799999998,7.9078584,0.7334893,-16.9819006,1.7508101999999999,-17.805663199999998,9.2700761,2.1085351,,15.3310113,5.9265494,11.7633246
58,52,Te,8.358116,-11.7619766,109.922458102,22.5907804,4.7378138,2.6989612000000003,-20.3071841,3.1113889,-22.6286333,12.5857392,3.2678051,,10.9263274,3.2874830999999998,11.928820400000001
57,53,I,8.244076699999999,-8.5452075,109.935085102,23.839000000000002,2.6004452000000002,3.5805414,,8.4941715,-22.369615600000003,10.8666567,0.0414156,,16.0246394,5.053,15.8318067
56,54,Xe,8.159280800000001,,109.944258759,25.4329161,0.7189023,3.8722066,,8.5037919,,13.824408100000001,1.5391022,,11.559000000000001,2.371,14.381
71,40,Zr,8.118,12.48,110.960837,6.893,,-10.655,23.46,,7.758,2.331,,40.305,6.711,5.164,
70,41,Nb,8.223,10.98,110.947439,8.413,31.058,-9.415000000000001,20.064,,7.5040000000000004,4.722,14.029,33.344,7.48,6.854,-6.534
69,42,Mo,8.315293200000001,9.084862,110.935651966,9.423165000000001,28.788,-8.345,16.8455119,-25.009,3.0234319999999997,3.4753171000000003,14.918870199999999,26.0460728,7.4607931,4.4694393,-3.343
68,43,Tc,8.390090599999999,7.76065,110.925898966,10.884483099999999,26.912818,-7.7257868,13.2791955,-24.003732199999998,2.9766355,6.0614300000000005,11.777832,19.1907716,8.345416199999999,6.5886772,-3.8330756000000004
67,44,Ru,8.4529582,5.5185456,110.917567566,12.1895063,24.7039829,-6.6652664,9.200560900000001,-19.538482000000002,-2.0279507000000003,4.7840145000000005,13.0397329,12.4669216,8.2083101,4.0015603,-0.3896258
66,45,Rh,8.4956267,3.6820153,110.911643164,13.4472561,22.5989846,-5.9788199,5.9115761000000004,-18.5582785,-2.0442846,7.5464963,9.520213100000001,6.0881788,9.1453912,6.2215883000000005,-0.7346383
65,46,Pd,8.5217498,2.2295607,110.907690358,14.5220387,19.8253732,-4.5482367,3.2663607000000003,-13.202228400000001,-6.5998982,5.7263,10.4461646,-0.047305700000000006,9.724171700000001,3.9093246,3.3219199
64,47,Ag,8.5347878,1.0368,110.905296827,15.638652500000001,17.794138200000003,-3.7766517,0.1766028,-12.6757253,-5.938795600000001,8.8294589,7.173513700000001,-7.3787004,10.1018437,6.1728234,2.4621109000000003
63,48,Cd,8.537080099999999,-0.8601972,110.904183776,16.8905527,16.2237054,-3.3045091,-3.3136664000000002,-8.2103137,-10.8535956,6.9755956,9.083911899999999,-15.6647601,10.1779906,3.2185997000000004,5.9183704
62,49,In,8.5222824,-2.4534692000000002,110.905107236,18.045160199999998,14.2505613,-2.4102661,-7.555303200000001,-8.2237147,-10.6213753,9.9933984,5.3330514,-23.4382551,10.8230877,5.724428,4.8611439
61,50,Sn,8.493131,-5.101834,110.907741143,19.4510363,12.0121923,-1.3731710000000001,-12.3510937,-2.8795821999999998,-16.5601542,8.1679061,6.7575822,-31.419,11.261752200000002,3.0453028,8.9602442
60,51,Sb,8.4401203,-7.2492597,110.913218187,20.7283963,8.925163000000001,0.3050044,-15.8829519,-1.6557482000000001,-16.6782442,11.458320200000001,2.2837251000000003,-37.937,12.504240900000001,6.0972574,8.9294838
59,52,Te,8.367763499999999,-8.6336922,110.921000587,22.0147236,5.5352486,2.4998359999999997,-19.067,4.9655346,-21.190961100000003,9.4289845,3.4267135,,13.3743066,3.7219092000000003,14.128864100000001
58,53,I,8.2829343,-10.434000000000001,110.930269236,23.4239256,3.2807504,3.2745378,-22.054000000000002,5.2069787,-21.1024764,12.557268899999999,0.0129453,,13.4724117,5.6919367,13.1379483
57,54,Xe,8.182,-11.620000000000001,110.94147,24.493000000000002,1.383,3.7121503,,10.421,,10.669,1.341,,13.863,3.1151504,16.908