N,Z,element,be_per_a,beta_decay_energy,atomic_mass,s2n,s2p,qa,q2b,qep,qbn,s1n,s1p,q4b,qda,qpa,qna
83,50,Sn,8.310089,8.0496228,132.923913753,9.7519477,30.240072100000003,-10.176664500000001,12.063242500000001,-27.697432100000004,0.6900732,2.3986547999999996,15.7513079,16.7696927,7.8612859,3.8966946,-4.1098906
82,51,Sb,8.3647302,4.0136198,132.915272128,13.0847376,25.477086,-8.5135402,6.9337887,-23.8009306,-1.8066341000000001,7.3595496,9.6659306,9.147429899999999,9.0518727,6.0727588,-3.3705812
81,52,Te,8.3890255,2.920169,132.91096333,13.8687475,20.2504962,-4.7714519,4.7064502,-13.6795504,-5.3049493000000005,5.8202539,10.5908223,4.6163791000000005,9.755085800000002,4.2126092,2.8414859999999997
80,53,I,8.4050993,1.7862812,132.9078284,14.5572107,18.4538323,-3.6528335000000003,2.2136412,-13.5109913,-4.649645400000001,8.2251183,7.9580758,-0.3629101,10.0645267,6.359713,2.0747872000000003
79,54,Xe,8.412647699999999,0.42736,132.905910748,15.372644200000002,17.0105036,-3.0636147,-0.090071,-9.7443571,-8.562207899999999,6.4359266,9.2290525,-5.225359900000001,10.5099513,4.1566602,5.3557788
78,55,Cs,8.4099786,-0.5174310000000001,132.905451958,16.1580051,15.206157900000001,-1.9886828,-2.5765513,-9.6564125,-7.707358,8.9895679,6.0809396,-10.133351699999999,11.0534389,6.673586500000001,4.5116472000000005
77,56,Ba,8.400205900000001,-2.0591203,132.906007443,17.0171898,13.7178792,-1.2823581,-5.1352888000000005,-5.5635085,-11.9012525,7.189927,7.6897899,-15.221131900000001,11.2128691,4.2102977,7.9733646
76,57,La,8.3788415,-3.0761685,132.908218,17.867763200000002,12.0167598,-0.4202576,-7.5568004,-5.6306696,-11.0970221,9.8421323,4.3484597,-20.0867388,11.895373600000001,6.6264398,7.0517650000000005
75,58,Ce,8.3498301,-4.4806319000000006,132.911520402,18.8524113,10.317207,0.2177266,-10.0858431,-1.2722912,-15.2620775,8.0208536,5.9836167,-25.187,12.0618485,4.0732063,10.4849554
74,59,Pr,8.3102588,-5.6052112,132.916330558,19.7795637,8.7462688,0.9610339,-12.529938399999999,-1.5029848,-14.5830943,10.7814456,2.7578747,-30.702,12.481663699999999,6.3493771,9.336185200000001
73,60,Nd,8.262232000000001,-6.9247272,132.922348,20.706975900000003,7.201874200000001,1.5302081,-15.101,2.8473366,-18.776,8.9778831,4.3938874,-36.272,12.679090700000001,3.7071395000000003,12.736935299999999
72,61,Pm,8.2042841,-8.177,132.929782,21.78,5.684931300000001,1.940997,-18.172,2.5308398000000003,-18.339,11.851,1.2708089,,13.071194400000001,6.052641700000001,11.414213700000001
71,62,Sm,8.137,-9.995000000000001,132.93856,23.093,4.041,2.719,-21.171,6.906000000000001,-23.102,10.163,2.892,,13.25,3.103,15.012
70,63,Eu,8.056000000000001,-11.176,132.94929,23.915,2.044,3.519,,7.103,,13.107000000000001,-0.615,,13.755,5.328,13.88
69,64,Gd,7.966,,132.961288,,0.358,3.845,,11.791,,,1.149,,14.115,2.317,17.286
86,48,Cd,8.086,12.51,133.957638,5.1370000000000005,,-9.155,26.974,,10.159,3.391,17.669,43.074,5.651,6.154,-8.074
85,49,In,8.173,14.464,133.944208,5.7010000000000005,32.148,-8.497,22.049,-30.179000000000002,10.833,2.351,15.119,32.074,9.206,8.106,-5.573
84,50,Sn,8.2751719,7.5852452999999995,133.92868043,6.0298413,30.5462715,-7.741077000000001,16.0999936,-29.583000000000002,4.418436300000001,3.6311864000000003,16.033,21.692075799999998,6.6886019,6.4546658,-5.5755961
83,51,Sb,8.3259398,8.514748299999999,133.920537334,10.5263585,26.185392500000003,-6.5373901,10.0244358,-23.618000000000002,0.8468108,3.1668089,10.4340847,12.8721613,13.2383566,8.109630000000001,-0.3482325
82,52,Te,8.3836442,1.5096875,133.911396376,13.4881914,20.5651409,-4.8264515,5.5920821,-18.948833,-4.7477685,7.6679375,10.8992103,6.4162498,7.8123363,4.3117145,0.37722870000000003
81,53,I,8.389072200000001,4.0823946,133.90977566,14.482574300000001,18.9861003,-4.1826688,2.8477255,-12.4088978,-4.4711748,6.257456,8.395278000000001,1.175219,11.855564300000001,6.0316369000000005,3.584374
80,54,Xe,8.4136994,-1.2346691,133.90539303,14.9894961,17.5155795,-3.1977907,0.8241677,-12.4776726,-8.1262095,8.5535695,9.5575037,-3.2929362,8.288474200000001,4.180948000000001,2.7315893
79,55,Cs,8.398647,2.0588368,133.906718501,15.881108200000002,15.7656058,-2.3798932,-1.6725065,-8.3228345,-7.4089714,6.8915403,6.5365533,-8.3631658,13.0986162,6.3864648,6.1979642
78,56,Ba,8.4081731,-3.7313434,133.904508249,16.6577352,14.248969800000001,-1.4944436,-4.1171039,-8.5953902,-11.5269285,9.4678082,8.1680302,-13.3035595,8.913498100000002,3.9696271000000003,5.109975
77,57,La,8.3744888,-0.3857605,133.908514011,17.637717400000003,12.6439077,-0.7438201000000001,-6.6906592,-4.4366868,-10.8717536,7.7955851,4.9541178,-18.4547505,13.927051299999999,6.3243547,8.4833175
76,58,Ce,8.3657716,-6.3048987,133.908928142,18.506846699999997,10.9759373,-0.0010377000000000001,-9.1864557,-4.5683573,-14.966625,10.4859931,6.627477600000001,-23.457,9.601486300000001,3.8004216000000004,7.4924622
75,59,Pr,8.3128817,-2.8815569,133.915696729,19.443171900000003,9.3823641,0.6744589,-11.764091200000001,-0.3225789,-14.266937500000001,8.6617263,3.3987474000000004,-28.728,14.6514952,6.0445037,10.887667299999999
74,60,Nd,8.2855391,-8.8825343,133.918790207,20.3632637,7.7556970000000005,1.3515546999999999,-14.27,-0.5171905000000001,-18.3101078,11.385380600000001,4.9978224,-34.117,10.2918281,3.5182763,9.708407600000001
73,61,Pm,8.2134131,-5.388,133.928326,21.279,6.1143867,1.9866402,-16.963,3.8847118999999997,-17.604,9.427573500000001,1.7204993,,15.3727138,5.8681872,13.183157600000001
72,62,Sm,8.167,-11.576,133.93411,22.379,4.5280000000000005,2.795,-19.846,3.6670000000000003,-22.211000000000002,12.216000000000001,3.257,,10.962,3.258,12.038
71,63,Eu,8.075,-8.271,133.946537,23.743000000000002,2.751,3.244,,8.318,-21.812,10.636000000000001,-0.14200000000000002,,16.05,5.344,15.616
70,64,Gd,8.008000000000001,,133.955416,,0.968,3.745,,8.412,,13.541,1.583,,11.381,2.798,14.397
86,49,In,8.136000000000001,13.522,134.949425,5.563,32.608000000000004,-8.785,22.580000000000002,,11.252,3.212,14.939,36.669000000000004,7.74,8.219,-7.064
85,50,Sn,8.2306877,9.05808,134.934908603,5.9009979999999995,31.07,-7.8454077,17.096538000000002,-28.461000000000002,5.3154337,2.2698116,15.951,25.7811125,7.769,6.6433565,-4.5204208
84,51,Sb,8.2919894,8.0384581,134.925184354,6.909455200000001,26.578,-4.0908788000000005,14.0888475,-25.009,4.772102,3.7426463,10.5455446,17.8916243,11.894365200000001,11.7202765,-1.6323765000000001
83,52,Te,8.3457384,6.0503894,134.916554715,10.9342935,21.432842100000002,-2.8891273,8.6845745,-18.5840026,-1.7566685,3.2663560000000005,10.9987574,10.1218645,11.9055299,6.770546500000001,4.4641655
82,53,I,8.3847609,2.6341851000000003,134.910059355,14.064513999999999,19.4336087,-4.2226839,3.8027768,-17.0491468,-3.7246633000000005,7.8070579,8.5343984,2.8642778,9.8687602,6.273072600000001,1.5025041000000001
81,54,Xe,8.3984783,1.1685917,134.907231441,14.912417900000001,18.054174,-3.6272591000000003,1.43729,-11.1685835,-7.5935175,6.3588484,9.6588961,-1.7970572,10.1547441,4.154192,4.4212345
80,55,Cs,8.4013393,0.2686983,134.905976907,15.653649600000001,16.3025968,-2.5641451,-0.9384990000000001,-10.827487800000002,-6.7032724,8.7621093,6.7450931,-6.6460846,10.772433600000001,6.5610732,3.7679473
79,56,Ba,8.3975345,-1.2071973,134.905688447,16.4397789,14.785013900000001,-1.8619957,-3.2343472,-7.013791400000001,-10.7033141,6.9719707,8.2484605,-11.637035099999999,10.9310953,4.1660936,7.0747219
78,57,La,8.3827972,-2.0271499,134.906984427,17.2917019,13.1504566,-1.0127993,-5.7075857,-7.0412633,-9.881877300000001,9.4961168,4.9824264000000005,-16.5811286,11.620861500000002,6.6555007,6.155637899999999
77,58,Ce,8.361986100000001,-3.6804357,134.909160662,18.3407205,11.6407377,-0.3622652,-8.4026879,-2.9552765,-14.1596261,7.8547274,6.6866199,-21.7590856,11.588891100000001,3.9713251,9.4649977
76,59,Pr,8.3289284,-4.7222522,134.913111772,19.140916700000002,10.0194223,0.40847690000000003,-10.8735429,-3.0061842000000003,-13.360747300000002,10.4791904,3.3919447000000003,-26.788,12.193158299999999,6.396871,8.4341078
75,60,Nd,8.2881536,-6.1512907,134.918181318,20.0238757,8.373338599999999,1.0699124999999998,-13.356397600000001,1.3303075,-17.5210294,8.6384951,4.9745912,-31.964000000000002,12.4347787,3.8778993,11.9014702
74,61,Pm,8.236793299999999,-7.2051069,134.92478499999999,20.7973122,6.7026798,1.8134188999999998,-15.915000000000001,1.1766995,-16.758,11.369738700000001,1.7048574,-37.01,12.9808582,6.2275413,10.811537000000001
73,62,Sm,8.177627000000001,-8.709,134.93252,21.769000000000002,5.1027841,2.4859024,-18.608,5.5002495,-21.128,9.552,3.3822848,,13.261237900000001,3.634,14.214995199999999
72,63,Eu,8.107,-9.898,134.94187,23.054000000000002,3.318,3.198,-21.095,5.327,-20.689,12.419,0.061,,13.794,5.856,13.126
71,64,Gd,8.028,-11.197000000000001,134.952496,24.332,1.597,3.606,,9.837,,10.791,1.738,,13.697000000000001,2.815,16.536
70,65,Tb,7.939,,134.964516,,0.395,3.986,,9.459,,,-1.1879999,,13.718,,14.794
87,49,In,8.091,15.200000000000001,135.956017,5.143,,-8.995000000000001,23.537,,11.591000000000001,1.931,15.439,38.575,9.201,8.034,-6.243
86,50,Sn,8.197000000000001,8.337,135.939699,5.8790000000000004,31.288,-8.13,18.255,-30.639,5.449,3.609,16.349,30.259,6.511,6.384,-6.384
85,51,Sb,8.252253300000001,9.9183897,135.930749009,6.6305217,27.115000000000002,-4.5202518000000005,15.038335100000001,-24.686,5.1505827,2.8878754,11.1636083,21.8319655,12.6376762,11.231056,-1.17
84,52,Te,8.3194301,5.1199455,135.92010118,8.034163,22.569462599999998,-0.3036415,12.003891,-21.081998,1.2825824000000001,4.7678069999999995,12.023918,14.4618,10.304531800000001,9.3622891,2.0950134
83,53,I,8.351324199999999,6.8839455,135.914604693,11.644421000000001,20.104162799999997,-2.3348589000000004,6.7936304000000005,-17.1438635,-1.2031779,3.837363,9.105405500000002,6.492263,13.6993347,8.2559634,5.0246906000000005
82,54,Xe,8.396188899999999,-0.09031510000000001,135.907214474,14.445971799999999,18.47336,-3.6658889,2.4579090000000003,-15.9893509,-6.9185317,8.087123400000001,9.9389615,0.0793797,8.3250767,4.2921869,2.1543649
81,55,Cs,8.3897723,2.5482241,135.907311431,15.5903258,16.8733574,-3.0602693,-0.3013673,-9.8486464,-6.5595183,6.8282166,7.2144613,-4.9984342,12.4977864,6.1687832,5.164849
80,56,Ba,8.4027566,-2.8495915000000003,135.9045758,16.079713100000003,15.3391868,-2.0330205,-2.3785294,-9.7626854,-10.314939700000002,9.1077424,8.5940937,-9.687781800000002,8.7148932,4.0479191000000005,4.4029061
79,57,La,8.376051200000001,0.4710621,135.907634962,16.961465,13.7242645,-1.3097104,-4.6970669,-5.7445022,-9.4924982,7.4653482,5.475804,-14.867565,13.6233215,6.3800795,7.679857500000001
78,58,Ce,8.3737624,-5.168129,135.907129256,17.818287700000003,12.1364898,-0.49856259999999997,-7.3092524,-5.9468661,-13.643996,9.9635603,7.1540633,-19.697650799999998,9.420916,3.8498971,6.6913644
77,59,Pr,8.330008900000001,-2.1411234,135.91267747,18.9550574,10.699704200000001,-0.0417592,-10.170498100000001,-1.9859343,-13.198119199999999,8.475867000000001,4.0130843,-25.097,14.2032845,5.9418576000000005,9.800373100000002
76,60,Nd,8.3085127,-8.0293747,135.914976061,19.6954909,8.9443412,0.8444745,-12.3883983,-1.8719608,-17.2082865,11.056995800000001,5.5523966,-30.11,10.039509200000001,3.6023491,8.865328
75,61,Pm,8.2437207,-4.3590237,135.923595949,20.5486505,7.2198653,1.6326251999999999,-14.926,2.4769780999999997,-16.384018700000002,9.1789118,2.2452741,-35.27,15.1873269,6.0265126,12.4140708
74,62,Sm,8.205916499999999,-10.567,135.928275553,21.577,5.7423986000000005,2.1900002,-17.721,2.1137496000000002,-20.734,12.024995,4.037541200000001,,10.6638163,3.4608091,11.1678832
73,63,Eu,8.122,-7.154,135.93962,22.586000000000002,4.058,2.959,-20.344,6.53,-20.065,10.167,0.675,,15.843,5.851,14.81
72,64,Gd,8.064,-13.19,135.9473,23.703,2.2920000000000003,3.625,,6.479,-24.108,12.911,2.231,,11.422,3.0100000000000002,13.788
71,65,Tb,7.961,,135.96146,,0.677,3.876,,10.959,,10.918000000000001,-1.061,,16.341,5.024,16.983
88,49,In,8.053,14.32,136.961535,4.862,,-9.175,24.23,,12.269,2.931,,40.526,7.7010000000000005,8.494,
87,50,Sn,8.152000000000001,9.911,136.946162,5.66,31.907,-8.435,19.154,,6.2860000000000005,2.051,16.469,32.234,7.671,6.684,-5.043
86,51,Sb,8.2184764,9.2433698,136.935522519,6.5126963,27.528000000000002,-4.795,16.2958761,-26.379,6.2935687,3.6248209000000005,11.179,26.4853799,11.2826669,11.2374215,-2.444
85,52,Te,8.280235699999999,7.0525063,136.925599354,7.717608,23.249452,-0.8547877,13.079651900000002,-20.423000000000002,2.1701444000000003,2.949801,12.0858437,18.4176387,11.0973771,9.579297,2.7763987
84,53,I,8.3260033,6.0271455,136.918028178,8.7197249,21.243878400000003,0.1423287,10.1895038,-19.13835,2.0015836,4.8823619,9.2199604,10.7845967,12.0833288,11.041539,3.3091377000000004
83,54,Xe,8.3642865,4.1623582,136.911557771,12.1126854,19.2325659,-1.871197,5.3379867999999995,-15.247105900000001,-4.1158771,4.025562,10.127160400000001,3.5353512,12.106572700000001,6.524081000000001,5.7967405
82,55,Cs,8.3889581,1.1756285,136.907089296,15.1064519,17.3445347,-3.1133863,0.595093,-14.2895187,-5.7300112,8.2782353,7.4055732,-3.3439586,10.5783995,6.4441174000000006,3.1440697
81,56,Ba,8.391828799999999,-0.5805356,136.905827207,16.0133821,15.8859782,-2.5027336,-1.8026356000000001,-8.5812017,-9.7552312,6.9056397,8.6715169,-8.1374318,10.5713627,4.0338197000000005,6.0508358
80,57,La,8.3818807,-1.2221,136.906450438,16.6400438,14.136850899999999,-1.4948381,-3.9390515,-8.090981300000001,-8.7036335,9.1746956,5.5427571,-13.0680071,11.420596600000001,6.6731921000000005,5.3967023
79,58,Ce,8.3672497,-2.7169515,136.907762416,17.4450938,12.6460526,-0.7901691,-6.3347961999999995,-4.3206571,-12.6496625,7.481533499999999,7.1702486,-17.9271099,11.4354993,4.1639487,8.6776391
78,59,Pr,8.341707399999999,-3.6178447,136.910679183,18.4085779,11.1362983,-0.13233779999999998,-9.1289555,-4.4532970999999995,-12.0738344,9.932711,3.982235,-23.055910100000002,12.125300900000001,6.4951398000000005,7.6632473
77,60,Nd,8.309589200000001,-5.511110800000001,136.914563099,19.5129855,9.545603499999999,0.4093383,-11.5923137,-0.36439030000000006,-16.485364399999998,8.4559897,5.5325193,-28.37,12.0627099,3.8080857000000004,10.8953314
76,61,Pm,8.2636516,-6.0812029,136.920479519,20.153165400000002,7.7149284,1.4398172999999999,-13.9269546,-0.0214084,-15.333277200000001,10.974253500000001,2.1625319,-33.106,12.851568499999999,6.437639600000001,10.1015435
75,62,Sm,8.213552700000001,-7.8457518,136.927007959,21.277069400000002,6.3559778,1.9158089,-16.778,3.918671,-19.819,9.2520743,4.1107037,,12.7814807,3.6363082,13.301189500000001
74,63,Eu,8.1505738,-8.932,136.935430719,22.141000000000002,4.6615167,2.8368335000000005,-19.179000000000002,3.7350481,-19.127,11.974,0.6239756,,13.4221255,6.094,12.264407
73,64,Gd,8.08,-10.246,136.94502,23.106,2.934,3.593,,8.308,-23.385,10.195,2.259,,13.645,3.451,15.809000000000001
72,65,Tb,7.9990000000000006,,136.95602,24.057000000000002,1.397,3.844,,7.988,,13.139000000000001,-0.834,,13.993,5.4270000000000005,14.48
88,50,Sn,8.118,9.14,137.951143,5.4830000000000005,,-8.475,20.186,,6.479,3.432,16.969,34.462,6.171,6.464,-7.043
87,51,Sb,8.178,11.046,137.941331,6.2860000000000005,28.258,-5.105,17.330000000000002,-26.109,6.583,2.661,11.789,28.237000000000002,12.231,10.846,-1.893
86,52,Te,8.252578600000001,6.2839149,137.929472452,7.4133516,24.104,-1.6871519000000001,14.2762495,-22.835,2.5889557,4.4635506,12.9245734,22.5658111,9.5217019,8.858392700000001,0.5826598000000001
85,53,I,8.292445,7.9923346,137.922726392,8.577321099999999,22.0509622,-0.38582150000000004,10.907118500000001,-19.208488300000003,2.3321864,3.6949592,9.9651185,14.5334985,13.1561766,10.6129359,3.3568248
84,54,Xe,8.344691300000001,2.9147838999999998,137.914146268,9.685710199999999,20.124907200000003,0.1365922,8.2895615,-17.9574531,-1.49779,5.6601482,10.9049468,7.5936224,10.2837875,8.6709907,3.4029482
83,55,Cs,8.3601437,5.374777600000001,137.911017119,12.6908092,17.9197456,-1.2685042000000002,3.62638,-13.819730700000001,-3.2369453,4.412573900000001,7.7925851,0.2418385,14.2529491,8.390391900000001,6.5385538
82,56,Ba,8.393422200000002,-1.7483977,137.905247059,15.5173627,16.4105777,-2.5608872000000003,-0.6959392000000001,-13.167362800000001,-9.192258599999999,8.611723,9.0050045,-6.2446239,8.7878563,4.1842060000000005,3.7979612000000005
81,57,La,8.3750835,1.0524585,137.907124041,16.6185565,14.7524952,-2.0471586,-3.3845415,-7.2566068,-8.6659609,7.4438609,6.0809783,-11.5990381,13.0844781,6.201301900000001,6.7149507
80,58,Ce,8.377040800000001,-4.437,137.90599418,17.1999529,13.256729600000002,-1.0407803,-5.5486847,-7.1334368,-12.435371,9.7184194,7.713972399999999,-16.0680942,9.1824281,3.9416461,5.9311904
79,59,Pr,8.339219499999999,-1.1116847,137.910757495,17.931081900000002,11.669321,-0.33512369999999997,-8.2144966,-3.2769724,-11.6162156,7.998371000000001,4.4990724,-21.379191,14.0904902,6.3514962,9.1609931
78,60,Nd,8.3254946,-7.1028119,137.911950938,18.9605206,10.0865742,0.3908005,-10.5194095,-3.3873877,-16.0156418,10.5045309,6.1043392,-26.358,10.034046,3.7827452,8.245527899999999
77,61,Pm,8.2683558,-3.4165976000000002,137.919576119,19.8870834,8.1518913,1.1887137,-13.1646944,0.9984727000000001,-14.9940327,8.912829799999999,2.619372,-31.314,14.9957344,6.1633049,11.6679041
76,62,Sm,8.2379286,-9.748096799999999,137.923243988,20.8295095,6.8764172,1.7237543000000002,-15.838000000000001,0.7972256,-19.4231869,11.5774352,4.7138853,-36.567,10.382957300000001,3.4286117,10.3622495
75,63,Eu,8.1616211,-6.09,137.933709,21.649,5.1576949999999995,2.5893169,-18.149,5.0342115000000005,-18.607,9.6750901,1.0469913,,15.772030500000001,5.9716017,13.9590556
74,64,Gd,8.112,-12.059000000000001,137.940247,22.712,3.427,3.2920000000000003,-20.729,5.043,-22.764,12.517,2.803,,11.295,3.352,12.844
73,65,Tb,8.019,-8.669,137.953193,23.843,1.935,3.775,,9.256,,10.705,-0.324,,16.2,5.513,16.194
72,66,Dy,7.95,,137.9625,,0.419,4.174,,8.994,,,1.2530000000000001,,11.68,2.986,14.965
89,50,Sn,8.073,10.74,138.957799,5.303,,-8.915000000000001,20.895,,7.269,1.871,,36.335,7.231,6.524,
88,51,Sb,8.144,10.155,138.946269,6.132000000000001,28.798000000000002,-5.365,18.421,,7.575,3.472,11.829,30.651,10.81,10.984,-3.434
87,52,Te,8.2117716,8.2658835,138.935367191,7.0439542,24.633,-1.9977438,15.4395059,-21.984,3.7035113,2.5804036000000004,12.844,24.7088374,10.5661192,9.1658645,1.611
86,53,I,8.26561,7.1736224,138.9264934,8.2573314,22.9885135,-1.2055474,12.2301246,-21.11,3.4299624,4.5623721999999995,10.0639401,18.751417099999998,11.5436054,10.8183706,1.682328
85,54,Xe,8.3115904,5.0565023,138.9187922,9.4038082,20.918766100000003,-0.3407117,9.2693315,-17.2375625,-0.8288761,3.7436599999999998,10.9536476,11.313155199999999,11.4224894,8.7646937,4.4270953
84,55,Cs,8.3423397,4.2128293,138.913363822,10.2979522,18.922762,0.6531754,6.5212924999999995,-16.0101498,-0.5106007,5.8853783,8.0178152,4.1275639,12.3931327,10.592137000000001,4.4905384999999995
83,56,Ba,8.3670194,2.3084632000000003,138.908841164,13.335153,17.1084457,-0.9254687,2.0438237,-12.2306445,-6.4718276,4.7234300000000005,9.3158606,-2.8969879,12.3426617,6.288992599999999,7.161654700000001
82,57,La,8.377998700000001,-0.2646396,138.906362927,16.2241517,15.2545507,-2.0653402,-2.3937285999999998,-11.6243238,-7.7278323,8.7802909,6.2495462,-9.721352500000002,11.209826999999999,6.5287535,4.762876400000001
81,58,Ce,8.3704664,-2.129089,138.906647029,17.1816122,13.8142826,-1.5320024,-4.9408116,-5.9849066,-11.900192800000001,7.4631928,7.7333043,-14.5775122,10.893931,3.9438016,7.5757401
80,59,Pr,8.3495208,-2.8117226,138.9089327,17.7694747,12.2657292,-0.6101106,-7.3276239,-5.6042153,-10.8827885,9.7711038,4.551756800000001,-19.4306009,11.80092,6.5439527,6.855237600000001
79,60,Nd,8.3236642,-4.5159014,138.911951208,18.5755968,10.676106599999999,0.174462,-9.636700600000001,-1.7400342000000002,-15.1738778,8.071065899999999,6.1770342000000005,-24.385,11.895691000000001,4.1875463,10.138022300000001
78,61,Pm,8.285547300000001,-5.1207993,138.916799228,19.5708063,8.877156800000002,1.0099277,-12.1029769,-1.6611328,-14.074574,10.6579765,2.7728175999999998,-29.371000000000002,12.7937477,6.5623242,9.485794700000001