N,Z,element,be_per_a,beta_decay_energy,atomic_mass,s2n,s2p,qa,q2b,qep,qbn,s1n,s1p,q4b,qda,qpa,qna
23,14,Si,7.952903,12.424486000000002,36.992945191,8.322690000000001,36.78924,-13.95872,20.32491,-34.24064,5.608210000000001,2.2066999999999997,19.810869999999998,24.376150000000003,4.363020000000001,1.29283,-9.24846
22,15,P,8.267555,7.900419,36.979606956,10.28083,33.35021,-12.923530000000001,12.765540000000001,-32.23535,3.59682,6.81628,13.848840000000001,5.8042,6.10627,5.82491,-10.34931
21,16,S,8.459935,4.865121,36.971125506999996,14.19284,27.082900000000002,-8.80701,4.0512500000000005,-21.74926,-5.445729999999999,4.3036,13.93435,-13.76035,8.67219,2.51634,-1.29316
20,17,Cl,8.570281000000001,-0.8138730000000001,36.965902584,18.89064,21.48168,-7.84911,-6.96134,-18.799470000000003,-9.60132,10.31085,8.386379999999999,-35.282000000000004,7.795470000000001,3.0342,-1.56644
19,18,Ar,8.527139,-6.147465,36.966776314,24.04301,16.6794,-6.7867299999999995,-17.8116,-7.5725,-21.60192,8.78744,8.71463,,8.776670000000001,-1.64353,4.63042
18,19,K,8.339847,-11.664133,36.973375889,29.76994,10.36461,-6.22178,-28.32,-2.56716,-26.42037,15.454450000000001,1.8576300000000001,,8.957889999999999,-1.55785,5.28628
17,20,Ca,8.003456,-16.656,36.985897852,34.067,4.666720000000001,-6.17669,,9.8065,-36.558,14.75623,3.00797,,8.74763,-7.0520000000000005,10.88863
16,21,Sc,7.532,,37.003779,,-0.115,-5.947,,13.648,,19.902,-2.682,,9.443,-5.4670000000000005,10.387
26,12,Mg,6.928,17.864,38.03658,2.449,,-21.192,38.244,,16.193,2.209,26.749000000000002,60.935,-1.518,0.707,
25,13,Al,7.377097,20.380157,38.017402,5.88316,44.671,-17.89517,30.831419999999998,-44.613,14.710049999999999,1.67102,19.29059,46.00796,6.54051,5.434130000000001,-16.375
24,14,Si,7.892829,10.451265,37.995523,7.876810000000001,39.1284,-14.91856,22.690900000000003,-39.67074,6.75438,5.670100000000001,21.26883,30.544520000000002,0.59012,0.9174800000000001,-14.163680000000001
23,15,P,8.147274000000001,12.23964,37.984303105,10.513160000000001,35.14989,-14.046190000000001,15.176540000000001,-31.7201,4.20354,3.69688,15.339020000000001,14.17919,8.52537,4.63395,-8.751430000000001
22,16,S,8.448782,2.9369,37.97116331,12.33971,29.00302,-9.329270000000001,7.85362,-27.57866,-3.17098,8.036100000000001,15.15418,-4.8027,4.10064,2.86065,-6.82334
21,17,Cl,8.505481,4.916718,37.968010418,16.41873,24.12501,-7.67432,-0.9973500000000001,-18.09108,-6.921760000000001,6.107880000000001,10.19066,-25.549,11.57683,3.91216,0.7061000000000001
20,18,Ar,8.61428,-5.914066,37.962732104,20.625919999999997,18.62863,-7.20805,-12.65632,-15.107370000000001,-17.98594,11.83847,10.24225,-45.584,5.51799,-0.83724,-0.22221000000000002
19,19,K,8.438058000000002,-6.742256,37.969081116,27.526320000000002,13.85669,-6.78559,-24.551000000000002,-4.328189999999999,-23.73601,12.07187,5.142060000000001,,12.14159,-0.88942,5.85917
18,20,Ca,8.240043,-17.809,37.976319226,31.74998,6.4049,-6.10512,-32.928,1.60019,-33.65,16.99375,4.54727,,6.06937,-6.02155,6.63519
17,21,Sc,7.751,-15.119,37.995438,35.743,1.41,-5.454,,13.262,,15.841000000000001,-1.598,,12.912,-4.173,12.57
16,22,Ti,7.332,,38.011669,,-2.743,-5.407,,16.717,,,-0.061,,6.229,,11.728
27,12,Mg,6.747,21.625,39.045384,2.079,,,39.955,,17.994,-0.13,,65.438,-0.548,0.837,
26,13,Al,7.281000000000001,18.330000000000002,39.022169,5.3020000000000005,47.462,-20.006,33.425,,16.749,3.6310000000000002,20.713,50.45,3.15,5.134,-20.006
25,14,Si,7.7309790000000005,15.094986,39.002491,7.25077,40.46906,-15.74435,25.48302,-39.043,8.870600000000001,1.58067,21.17848,35.56254,3.2215900000000004,1.2340200000000001,-12.4134
24,15,P,8.097969,10.388033,38.986285865,9.92127,37.16214,-14.97582,17.02557,-36.27346,6.01525,6.2243900000000005,15.89331,21.03256,4.507680000000001,4.52554,-13.07862
23,16,S,8.344269,6.637537999999999,38.975133852,12.40888,31.1691,-11.19613,10.07952,-26.28134,-1.43588,4.37278,15.83007,4.12004,6.5441400000000005,1.95242,-5.08014
22,17,Cl,8.494402000000001,3.4419850000000003,38.968008162,14.1813,25.382150000000003,-7.367319999999999,4.00699,-22.46761,-3.1567,8.07342,10.22797,-15.6275,7.8070200000000005,5.72798,-3.90277
21,18,Ar,8.562598,0.5650000000000001,38.964313039,18.43716,20.92371,-6.8209,-5.95949,-13.66996,-12.51275,6.5986899999999995,10.73306,-35.442,9.23015,1.14387,3.06834
20,19,K,8.557025,-6.524488000000001,38.96370648661,25.149630000000002,16.62359,-7.21858,-19.63448,-11.29806,-19.82001,13.07775,6.381340000000001,,7.85128,1.2884000000000002,1.36122
19,20,Ca,8.369670000000001,-13.109993000000001,38.970710813,30.289270000000002,10.91298,-6.66033,-29.483,0.14315,-31.105,13.295520000000002,5.77092,,8.228299999999999,-5.00158,8.59524
18,21,Sc,8.013456,-16.373,38.98478497,33.835,3.95045,-5.424729999999999,,7.33908,-33.114,17.995,-0.59682,,9.67416,-2.8575,8.89076
17,22,Ti,7.574,,39.002362,,-0.758,-5.013,,16.97,,16.741,0.839,,9.391,-8.287,14.298
28,12,Mg,6.628,20.76,40.051906,1.867,,,42.92,,19.629,1.997,,71.188,,-0.32,
27,13,Al,7.127,22.16,40.029619,4.763,,-21.138,35.704,,17.198,1.1320000000000001,21.974,55.148,4.227,4.243,-20.298000000000002
26,14,Si,7.661754,13.544049000000001,40.005829,6.54266,43.222,-17.37539,28.26752,-44.135,10.133000000000001,4.96199,22.51,40.46957,-0.06937,0.48417000000000004,-17.13539
25,15,P,7.980796000000001,14.723476000000002,39.991288865,9.635440000000001,38.90217,-16.48967,19.44344,-36.054,6.976979999999999,3.4110500000000004,17.723689999999998,25.42112,6.76673,3.3211999999999997,-12.27753
24,16,S,8.329325,4.719967,39.975482562,12.119280000000002,33.24549,-12.82664,12.20205,-32.44717,-1.1089600000000002,7.7465,17.35218,12.008540000000002,2.49452,1.02221,-10.61993
23,17,Cl,8.427764999999999,7.482082,39.970415469,13.90234,27.51419,-9.73169,5.97768,-22.07215,-2.38694,5.828930000000001,11.684120000000002,-7.034479999999999,10.0142,4.20266,-2.91541
22,18,Ar,8.595259,-1.5044030000000002,39.96238312378,16.46771,22.75663,-6.800680000000001,-0.19351,-19.1662,-9.304020000000001,9.86902,12.52866,-26.18951,5.46901,1.5857,-2.49708
21,19,K,8.53809,1.310893,39.963998166,20.87737,18.315330000000003,-6.4384,-13.01216,-11.02426,-14.324110000000001,7.79962,7.58227,-45.705,11.890139999999999,2.27623,3.8724499999999997
20,20,Ca,8.551303,-14.32305,39.962590865,28.93052,14.7095,-7.03976,-25.996000000000002,-8.89316,-28.74499,15.635,8.32816,,4.66518,-5.18213,1.7476800000000001
19,21,Sc,8.173669,-11.67295,39.977967292,32.416000000000004,6.300520000000001,-5.53119,-32.693,5.99488,-30.795,14.421940000000001,0.5296000000000001,,12.24597,-2.52321,9.92327
18,22,Ti,7.862286,-21.02,39.990498721,35.863,1.3698299999999999,-4.8241499999999995,,11.14335,,19.122,1.9666500000000002,,6.11,-7.506,9.932080000000001
17,23,V,7.317,,40.013065,,-1.842,-5.606,,19.054000000000002,,,-2.681,,12.011000000000001,,14.296000000000001
28,13,Al,7.008,21.3,41.035878,3.373,,-22.539,38.4,,19.919,2.241,22.219,60.727000000000004,1.856,4.21,
27,14,Si,7.508573,17.099435000000003,41.013011,6.343319999999999,44.734,-18.516720000000003,31.12825,-43.519,12.16272,1.38133,22.759,45.18717,2.18,0.77386,-16.308
26,15,P,7.906551,14.02881,40.994654,8.34777,40.208,-17.21425,22.32742,-39.859,9.786760000000001,4.93671,17.69842,30.57978,3.41069,4.05459,-15.54322
25,16,S,8.229635,8.298611000000001,40.979593451,11.98854,35.906870000000005,-14.861979999999999,14.05893,-31.72723,0.47792,4.24205,18.18318,16.12931,4.476859999999999,0.47704,-9.19188
24,17,Cl,8.412959,5.760317,40.970684525,13.64962,29.110500000000002,-10.73611,8.25235,-26.48179,-0.33861,7.82069,11.75831,1.33522,6.56628,4.41807,-7.03922
23,18,Ar,8.534372,2.492038,40.964500571,15.967950000000002,24.482779999999998,-8.596,2.07038,-17.51863,-7.60333,6.09893,12.79866,-17.369970000000002,7.443510000000001,1.5946500000000001,-0.5599
22,19,K,8.576072,-0.42165300000000006,40.96182525796,17.894990000000004,20.33728,-6.22292,-6.91713,-15.290700000000001,-8.78448,10.09537,7.80862,-35.88,8.393450000000001,4.01933,-0.11504
21,20,Ca,8.546706,-6.495478,40.962277921,23.99782,16.47364,-6.61514,-19.44035,-7.386970000000001,-22.685869999999998,8.36282,8.89137,,9.38011,-1.47308,5.22333
20,21,Sc,8.369198,-12.944875,40.969251104,30.61234,9.41316,-6.26713,-28.963,-2.39589,-27.86334,16.19039,1.085,,9.3511,-1.71986,5.80474
19,22,Ti,8.034388,-16.018,40.983148,34.04,2.99278,-4.98639,,11.859879999999999,-35.939,14.91847,2.4631700000000003,,9.185979999999999,-6.5840000000000005,12.00736
18,23,V,7.625,,41.000344,,0.085,-5.625,,13.555,,19.921,-1.8820000000000001,,8.831,-5.6850000000000005,10.216000000000001
29,13,Al,6.8740000000000006,23.63,42.043049,3.633,,,39.09,,19.909,1.3920000000000001,,64.932,2.461,2.689,
28,14,Si,7.418,15.46,42.017681,5.103,46.458,-20.029,34.107,,13.378,3.721,24.239,50.892,-0.40900000000000003,0.684,-20.159
27,15,P,7.767866,18.647485,42.001084,7.0185200000000005,41.158,-17.62503,25.84151,-39.699,11.947000000000001,2.08181,18.3989,36.031769999999995,6.29087,3.55344,-13.994
26,16,S,8.193227,7.194021,41.9810651,10.942530000000001,37.64537000000001,-15.89236,16.78493,-37.04638,1.59813,6.70049,19.94695,20.9095,1.18743,0.00094,-14.311700000000002
25,17,Cl,8.345886,9.590907999999999,41.973342,13.416590000000001,31.29534,-12.63512,10.19026,-27.140970000000003,0.16441999999999998,5.595899999999999,13.11216,7.28939,8.71688,3.19495,-6.41073
24,18,Ar,8.555613,0.599351,41.963045736,15.52541,26.162770000000002,-9.98639,4.124569999999999,-22.70307,-6.93445,9.42649,14.40446,-9.318,3.84594,0.24158000000000002,-5.6136099999999995
23,19,K,8.551256,3.5252190000000003,41.962402306,17.62917,22.042150000000003,-7.64884,-2.90087,-15.00381,-7.95545,7.5338,9.24349,-27.402,10.728670000000001,3.0842199999999997,0.42458
22,20,Ca,8.616563000000001,-6.426092,41.958617828,19.843490000000003,18.08529,-6.25734,-13.44257,-12.768709999999999,-17.97615,11.48067,10.276670000000001,-45.277,5.699050000000001,0.124,0.34135000000000004
21,21,Sc,8.444933,-7.016479,41.965516522,27.740450000000003,13.1636,-5.745310000000001,-24.502,-3.85058,-24.49493,11.55006,4.2722299999999995,,13.436040000000002,0.0256,7.33244
20,22,Ti,8.259247,-17.485,41.973049022,32.39692,4.83623,-5.47109,-31.835,2.74425,-33.496,17.478450000000002,3.75123,,6.12947,-6.06791,7.82443
19,23,V,7.824,-14.35,41.99182,35.932,1.674,-5.795,,13.734,,16.011,-0.789,,11.942,-4.956,12.199
18,24,Cr,7.464,,42.007225,,-1.002,-6.564,,15.139000000000001,,,0.879,,5.271,,10.176
30,13,Al,6.7410000000000005,23.919,43.050478,2.543,,,42.34,,22.479,1.151,,71.179,,3.5340000000000003,
29,14,Si,7.279,18.421,43.0248,5.1610000000000005,,-21.599,35.297000000000004,,14.02,1.44,24.288,55.111000000000004,0.392,0.375,-19.603
28,15,P,7.689572,16.875285,43.005024,6.48304,43.318,-18.395,28.839330000000004,-42.709,14.24625,4.40123,19.079,41.25521,3.27096,4.1142,-17.264
27,16,S,8.063827,11.964049000000001,42.986907635,9.32952,38.89307,-16.94073,19.814349999999997,-35.954,4.56499,2.62903,20.49417,26.21336,3.4951100000000004,0.78297,-11.97874
26,17,Cl,8.323866,7.850300000000001,42.9740637,12.994950000000001,33.75768,-13.809790000000001,12.41588,-32.458220000000004,2.19185,7.39906,13.81073,12.028590000000001,5.559880000000001,3.54239,-10.39874
25,18,Ar,8.488237,4.565581,42.965636055,15.084940000000001,27.579169999999998,-11.27206,6.3990100000000005,-21.66103,-5.059100000000001,5.65845,14.46701,-2.68873,6.00819,0.41206000000000004,-3.52556
24,19,K,8.57622,1.833434,42.960734703,17.15848,23.84614,-9.2001,-0.38729,-19.03259,-6.0994600000000005,9.62468,9.44168,-18.659029999999998,7.202920000000001,3.32856,-3.37117
23,20,Ca,8.600663,-2.22072,42.95876643,19.41357,19.919259999999998,-7.591550000000001,-9.08774,-11.275120000000001,-14.35899,7.93289,10.67577,-36.439,7.86153,-0.00928,2.2774699999999997
22,21,Sc,8.530825,-6.867020000000001,42.961150472,23.68832,15.2065,-4.80583,-18.27175,-8.45505,-19.15475,12.13827,4.92983,,9.660590000000001,3.5223400000000002,2.99379
21,22,Ti,8.352932000000001,-11.404726,42.968522521,29.766180000000002,8.76113,-4.4633,-27.351,1.9371900000000002,-29.773,12.28773,4.4889,,10.03214,-3.9336900000000004,11.171700000000001
20,23,V,8.069512,-15.946,42.980766,34.379,3.85188,-6.16856,,6.91583,-32.718,18.368000000000002,0.10065,,8.49199,-4.20192,8.25338
19,24,Cr,7.68,,42.997885,,0.851,-6.595,,15.846,,16.771,1.639,,8.42,-9.276,12.527000000000001
30,14,Si,7.174,18.063,44.03061,4.099,,-22.262,37.717,,15.762,2.6590000000000003,25.796,61.186,-0.876,-0.043000000000000003,
29,15,P,7.567,19.655,44.011219,6.702,44.227000000000004,-19.564,30.835,-43.858000000000004,14.575000000000001,2.301,19.94,46.232,4.691,3.1950000000000003,-17.323
28,16,S,7.996015000000001,11.180290000000001,43.990118848,7.70912,40.252,-17.05883,23.46902,-39.594,6.88396,5.08009,21.17303,32.26444,0.49683,0.63959,-15.6775
27,17,Cl,8.232332000000001,12.288731,43.978116312,11.69539,35.9722,-14.69507,15.39697,-32.353320000000004,3.55397,4.29633,15.47803,17.431459999999998,7.96403,3.4881100000000003,-9.75835
26,18,Ar,8.49384,3.1082370000000004,43.964923816,14.39321,29.61345,-12.26032,8.79542,-27.76677,-4.169180000000001,8.73476,15.802719999999999,4.875310000000001,2.86932,-0.50201,-8.01828
25,19,K,8.546700999999999,5.687183,43.961586986,16.902099999999997,25.52767,-10.64859,2.03449,-18.91095,-5.44399,7.27742,11.060649999999999,-11.66511,9.35199,2.1500700000000004,-2.8279
24,20,Ca,8.658175,-3.65269,43.955481543,19.06406,21.623939999999997,-8.853700000000002,-3.92011,-16.74784,-13.35189,11.131170000000001,12.182260000000001,-28.108,4.2641599999999995,-1.04508,-2.75477
23,21,Sc,8.557379000000001,-0.267416,43.959402867,21.837470000000003,17.3719,-6.70541,-13.699610000000002,-8.52957,-16.56622,9.699200000000001,6.69613,-44.846000000000004,11.44207,2.18596,3.3899600000000003
22,22,Ti,8.533520000000001,-13.432189000000001,43.959689951,28.58653,13.579270000000001,-5.1271,-24.188,-6.42872,-27.70353,16.2988,8.64944,,5.283390000000001,-4.0421,3.2357199999999997
21,23,V,8.210463,-10.756,43.97411,32.639,6.57317,-6.01796,-31.146,4.78275,-30.218,14.27134,2.08427,,11.699100000000001,-3.55479,10.17243
20,24,Cr,7.948,-20.39,43.985657,36.233000000000004,2.834,-6.9350000000000005,,8.672,,19.462,2.733,,4.97,-8.817,7.984
19,25,Mn,7.4670000000000005,,44.007547,,-0.07200000000000001,-7.565,,17.657,,,-1.711,,11.011000000000001,,12.356
31,14,Si,6.995,21.89,45.040247,1.754,,,41.479,,18.968,-0.905,,67.261,1.181,2.254,
30,15,P,7.464,19.589,45.016747,5.223,45.998,-20.245,33.862,,16.733,2.922,20.202,52.215,3.209,3.994,-18.854
29,16,S,7.881807,14.272954,44.995717,7.9367600000000005,41.669000000000004,-18.53417,25.781209999999998,-39.792,8.323620000000002,2.8566700000000003,21.729,36.82259,2.0413900000000003,-0.13527,-14.813
28,17,Cl,8.181598,11.508254,44.980394353,10.24567,37.520309999999995,-15.707690000000001,18.353099999999998,-36.002,6.3393999999999995,5.94934,16.34728,22.80935,4.64372,4.239260000000001,-13.625879999999999
27,18,Ar,8.419952,6.844841000000001,44.968039733,13.903620000000002,32.15328,-13.18713,11.04138,-27.855529999999998,-2.06062,5.16886,16.675240000000002,9.239040000000001,5.099520000000001,-0.07497,-6.48665
26,19,K,8.554674,4.196536,44.960691493,16.18288,27.03407,-11.733360000000001,4.45626,-23.520080000000004,-3.2182800000000005,8.90546,11.23135,-4.72962,6.104979999999999,2.6710900000000004,-6.13747
25,20,Ca,8.630545,0.259722,44.956186326,18.545990000000003,23.38031,-10.16958,-1.80233,-15.42789,-11.06751,7.41482,12.31965,-21.29737,6.47402,-0.9260900000000001,-0.7431
24,21,Sc,8.618931,-2.062056,44.955907503,21.02643,19.074450000000002,-7.937270000000001,-9.18588,-12.57937,-11.59464,11.32723,6.892189999999999,-35.822,8.04773,2.3394,-0.40347000000000005
23,22,Ti,8.555722,-7.123824,44.958121211,25.83139,15.17896,-6.29687,-19.495040000000003,-4.83014,-22.96478,9.53259,8.48283,-52.772,7.88907,-2.02463,5.18381
22,23,V,8.380029,-12.371217000000001,44.965768951,30.11229,10.275860000000002,-5.668520000000001,-26.636,-1.359,-26.597,15.840950000000001,1.6264200000000002,,8.14587,-1.91729,5.88154
21,24,Cr,8.087728,-14.265,44.97905,33.687,4.77166,-6.24218,-33.277,10.7448,-34.616,14.226,2.6873899999999997,,9.11236,-7.031000000000001,11.23628
20,25,Mn,7.753,-19.012,44.994364,,1.911,-7.995,,11.578,,20.351,-0.8220000000000001,,7.431,-7.1160000000000005,8.016
19,26,Fe,7.313,,45.014774,,-1.154,,,19.833000000000002,,,0.557,,,,12.678
31,15,P,7.317,22.63,46.024659,3.623,,-19.555,36.829,,18.888,0.7010000000000001,21.809,58.384,5.167,4.7330000000000005,-18.404
30,16,S,7.792,14.199,46.000365,6.598,42.751,-18.555,30.113,-44.439,10.531,3.742,22.549,43.479,0.6,0.524,-17.115000000000002
29,17,Cl,8.08348,15.913528000000001,45.985121323,9.617510000000001,38.888,-17.29405,21.55453,-36.748,7.84008,3.66817,17.15878,27.90182,6.05564,3.20012,-12.89282
28,18,Ar,8.412419,5.6409970000000005,45.968037446,13.24231,35.146629999999995,-14.5601,13.366430000000001,-33.07231,-1.22861,8.07345,18.79935,14.354870000000002,1.3224,-0.74936,-11.93107
27,19,K,8.518042,7.7254380000000005,45.961981586,15.77507,29.60734,-13.00707,6.34729,-24.44035,-2.67307,6.8696,12.9321,1.6614300000000002,7.970140000000001,1.45994,-5.60801
26,20,Ca,8.668979,-1.3781430000000001,45.953687988,17.81332,25.04405,-11.1416,0.9884400000000001,-20.65754,-10.13878,10.3985,13.81269,-13.667790000000002,3.3529400000000003,-1.69992,-5.48315
25,21,Sc,8.622012000000002,2.366581,45.955167485,20.08787,20.557669999999998,-9.16411,-4.68587,-12.43455,-10.822700000000001,8.76064,8.23802,-29.192,10.41826,1.51166,0.46057
24,22,Ti,8.656450999999999,-7.052449,45.952626856,22.72186,17.23707,-8.00547,-14.656229999999999,-10.604600000000001,-20.3131,13.18928,10.34487,-45.038000000000004,4.3989899999999995,-3.07564,-0.07258
23,23,V,8.48613,-7.603784,45.960197971,29.10161,13.83731,-7.37911,-24.506,-3.29243,-25.63187,13.26065,5.35448,,11.18402,-2.89021,4.75915
22,24,Cr,8.303823000000001,-16.902,45.96836097,32.254,6.50094,-6.791810000000001,-30.382,2.2493000000000003,-32.293,18.028080000000003,4.87452,,5.35562,-6.69116,5.49592
21,25,Mn,7.9190000000000005,-13.48,45.986506,35.742,3.031,-7.375,,12.027000000000001,-34.403,15.391,0.34400000000000003,,11.502,-5.735,10.993
20,26,Fe,7.609,,46.000977,,0.307,-8.245000000000001,,13.136000000000001,,20.923000000000002,1.129,,4.591,,8.527000000000001
32,15,P,7.19,22.34,47.031895,2.032,,-19.735,39.49,,21.299,1.331,,65.422,2.931,6.061,
31,16,S,7.648000000000001,17.150000000000002,47.007912,4.783,44.698,-18.156,32.736000000000004,,13.158,1.041,22.889,49.714,2.481,1.784,-15.497
30,17,Cl,7.996,15.587,46.989501,7.66,39.957,-16.884,25.932000000000002,-40.038000000000004,11.922,3.992,17.409,34.557,4.921,4.289,-14.584
29,18,Ar,8.311404000000001,10.345638000000001,46.972768114,11.73818,35.95469000000001,-15.595790000000001,16.978080000000002,-32.995,1.97627,3.66473,18.79591,19.57103,3.6070100000000003,-0.11776,-10.5157
28,19,K,8.514879,6.632442,46.961661614,15.23897,32.02737,-13.97738,8.62462,-29.14155,-0.64393,8.369370000000002,13.22802,6.29464,4.76963,1.82533,-9.681049999999999
27,20,Ca,8.639349000000001,1.9921769999999999,46.954541394,17.67488,27.151560000000003,-12.759530000000002,2.59295,-19.86046,-8.65452,7.27637,14.21946,-7.78184,4.98203,-1.6988699999999999,-4.024760000000001
26,21,Sc,8.665090000000001,0.600769,46.952402704,19.40733,22.298900000000003,-10.18612,-2.32998,-16.21164,-8.28011,10.646690000000001,8.4862,-21.770220000000002,7.18639,1.9961400000000002,-2.9087
25,22,Ti,8.661227,-2.930746,46.951757752,22.07016,18.70313,-8.95346,-10.37479,-9.086969999999999,-15.93333,8.88088,10.46512,-38.068,6.84534,-2.25732,2.1777100000000003
24,23,V,8.582225000000001,-7.44404,46.954904038,26.263240000000003,15.51266,-8.24343,-19.440240000000003,-7.53437,-20.60637,13.00258,5.16779,-52.377,7.71403,0.40601,1.45577
23,24,Cr,8.407195,-11.996204,46.962895544,31.19041,10.13068,-7.66641,-27.693,2.27625,-30.064,13.16233,4.7762,,8.03424,-5.582140000000001,8.63239
22,25,Mn,8.135311,-15.697000000000001,46.975774,33.459,5.2583,-7.07493,-32.937,7.22001,-31.548000000000002,18.068,0.38377999999999995,,7.65923,-4.3420000000000005,7.19641
21,26,Fe,7.785,-17.240000000000002,46.992625,36.774,1.933,-7.325,,15.313,,15.851,1.589,,9.091,-9.036,12.137