N,Z,element,be_per_a,beta_decay_energy,atomic_mass,s2n,s2p,qa,q2b,qep,qbn,s1n,s1p,q4b,qda,qpa,qna
41,40,Zr,8.3951519,-11.164,80.938245,26.897000000000002,6.622696299999999,-2.1458909,-26.064,5.4980780000000005,-27.175,10.836,3.6652269000000004,,10.989323800000001,-0.487,11.295933300000002
40,41,Nb,8.248,-14.9,80.95023,30.853,3.1350000000000002,-2.347,,7.4990000000000006,,16.011,-1.11,,11.121,-0.647,11.459
39,42,Mo,8.054,,80.966226,,-0.732,-2.285,,16.01,,,0.329,,10.901,,15.036
53,29,Cu,8.108,16.584,81.972378,5.1930000000000005,,-12.834,27.201,,12.399000000000001,1.891,16.929000000000002,44.376,8.221,7.2940000000000005,
52,30,Zn,8.3011175,10.6167652,81.954574097,6.807977200000001,33.652,-9.859,23.101114900000002,-33.513,7.2426832999999995,4.1856091,17.693,35.27993480000001,5.0760000000000005,4.9581339,-8.508000000000001
51,31,Ga,8.4210494,12.484349700000001,81.943176531,9.849687,30.829,-10.5661672,17.174702,-28.310000000000002,5.2896516,3.3740819,14.0200273,24.5679512,9.428700800000001,5.3656315999999995,-4.8762843
50,32,Ge,8.5637567,4.6903523,81.929774031,12.022397000000002,28.3443981,-10.356748900000001,12.1788199,-26.504377,-0.9530792,7.1946981,15.0760846,15.17672,4.5194064,1.9973353999999999,-6.336371199999999
49,33,As,8.6114153,7.4884677,81.924738731,14.033462400000001,25.459695,-8.8262579,7.3932492000000005,-19.7664368,-1.7877264000000002,5.643431400000001,11.1027033,6.0823853,10.1406939,4.2858073999999995,-1.9106698
48,34,Se,8.6931973,-0.09521840000000001,81.916699531,15.977043900000002,22.6365229,-8.1567527,2.9979001,-18.591171,-7.6881624,9.276194100000001,12.3495521,-1.5838326999999999,5.3315131000000004,0.9062411,-2.4203132999999997
47,35,Br,8.682495300000001,3.0931185,81.916801752,17.752287799999998,19.862017599999998,-7.1066229000000005,-1.3108639000000002,-12.2543337,-7.8737956,7.592943900000001,8.3986286,-9.4345792,10.9716176,3.2828444,1.7838064999999999
46,36,Kr,8.7106754,-4.4039824,81.91348115368,18.840976299999998,17.41025,-5.9907594,-4.5817328,-11.491747100000001,-13.2064095,10.9669141,9.9037154,-16.9777319,6.0080369000000005,0.3403275,0.9720729
45,37,Rb,8.6474275,-0.1777503,81.918209023,20.1549724,14.8767298,-5.1605606,-8.1237153,-5.499733,-12.730996600000001,8.802427100000001,5.7805847,-24.378,12.4164493,3.1185322,5.5266569
44,38,Sr,8.635719,-7.945965,81.918399845,21.8412311,12.6945496,-4.256695,-12.395999100000001,-5.6028344,-18.368461800000002,12.5532462,7.8423297000000005,-35.64,6.8762210999999995,-0.343229,4.0786295
43,39,Y,8.5292762,-4.4500341,81.926930189,23.0585711,10.4665631,-3.5535859999999997,-16.254,0.1036352,-18.610997100000002,10.4224969,3.8249343,,12.9581771,2.279622,8.385083
42,40,Zr,8.4654666,-11.804,81.931707497,24.997,7.880538,-2.8650297,-23.244,0.6250999,-25.325,14.160963,5.190115700000001,,8.244906199999999,-0.947073,7.5120031
41,41,Nb,8.312,-11.44,81.94438,29.532,5.239,-2.062,,6.614,-28.421,13.521,1.574,,13.661,-0.17500000000000002,11.64
40,42,Mo,8.163,,81.956661,,0.188,-1.945,,9.865,,16.981,1.299,,8.761000000000001,-3.856,12.047
53,30,Zn,8.226,12.967,82.961041,6.2330000000000005,34.778,-10.555,24.686,-32.859,8.569,2.047,17.849,39.050000000000004,6.331,5.253,-7.404
52,31,Ga,8.372575600000001,11.7193136,82.9471203,7.7718031000000005,31.925,-9.2740056,20.4122029,-30.816,8.0866285,4.3977212,14.2321394,29.7565925,7.6533476,7.2555458,-6.931
51,32,Ge,8.5043462,8.692889300000001,82.9345391,10.8273832,29.354715100000004,-9.9690563,14.3641009,-25.951453,1.0576671,3.6326851000000002,15.3346878,19.014201099999998,7.3623264,3.1112875,-3.6814208
50,33,As,8.599654000000001,5.6712117,82.9252069,13.2786536,26.619312,-9.545892,9.3443897,-24.0275771,-0.1467545,7.6352221,11.5432274,9.401308,7.3331707,4.7300379999999995,-4.7992547000000005
49,34,Se,8.658556,3.673178,82.919118604,15.094160200000001,23.6267902,-8.2382794,4.6501002,-17.2144391,-5.9131846,5.8179662,12.5240868,1.4570724000000002,7.9035779,1.7381132000000001,-0.1588267
48,35,Br,8.693385200000002,0.9769222,82.915175285,17.1793065,21.058349300000003,-7.8025561,0.056918300000000005,-16.197264800000003,-6.4932441,9.586362600000001,8.708797200000001,-6.808049100000001,8.0861049,3.6098213,-1.1527178
47,36,Kr,8.695729499999999,-0.9200039000000001,82.914126516,18.4370804,18.1795664,-6.4980934,-3.1930278,-9.6857194,-11.8741487,7.4701663,9.7809378,-14.0789838,8.697214400000002,0.7624367999999999,3.4152461
46,37,Rb,8.6752193,-2.2730239,82.915114181,19.756571800000003,15.671530800000001,-5.4274879,-6.8649674,-8.860933900000001,-11.1318951,10.9541448,5.767815400000001,-21.457729200000003,9.336366700000001,3.6868707,2.4647877
45,38,Sr,8.6384076,-4.5919435,82.917554372,21.4121175,13.6793586,-4.7802418,-10.885956,-3.4947915,-16.8048362,8.8588712,7.8987739,-30.458000000000002,9.3698952,0.2419161,6.742241600000001
44,39,Y,8.5736571,-6.2940125,82.922484026,22.635389500000002,11.326910400000001,-3.8278097,-14.5927618,-3.3068304,-16.6629268,12.212892700000001,3.4845807,-40.886,10.033269200000001,2.9698506000000005,5.616206600000001
43,40,Zr,8.4883997,-8.298749299999999,82.929240926,24.5298773,8.961467500000001,-2.8569112,-19.572,2.8094318,-22.173000000000002,10.3689143,5.1365332,,10.5120661,0.1005581,10.0462101
42,41,Nb,8.378988900000001,-11.273,82.93815,27.395,6.4779338,-2.2348911,-26.293,3.1622161,-25.314,13.875,1.2878181,,10.6223151,2.011,9.1816544
41,42,Mo,8.234,-15.02,82.950252,31.022000000000002,3.3930000000000002,-1.995,,9.985,,14.041,1.819,,10.731,-3.056,14.066
40,43,Tc,8.043000000000001,,82.966377,,-0.463,-2.094,,13.201,,,-1.7610000000000001,,10.851,,12.747
54,30,Zn,8.171,12.264000000000001,83.965829,5.659,35.688,-11.015,26.318,,9.356,3.611,18.729,44.118,4.61,4.944,-10.094
53,31,Ga,8.307525,14.054298900000001,83.952663,7.3060471,32.942,-9.84,21.759431799999998,-30.993000000000002,8.810987800000001,2.9083258,15.093,33.688958,8.9306309,6.969588,-6.538
52,32,Ge,8.4655244,7.7051329,83.93757509,8.8759962,30.4124171,-8.924731900000001,17.7992953,-29.147000000000002,3.4495782,5.2433111,16.1802777,24.2909101,5.4930972,4.3435816,-6.3023638
51,33,As,8.5479385,10.0941624,83.92930329000001,11.8907769,27.5007848,-9.0548095,11.9295262,-23.8854106,1.4156568999999999,4.255554699999999,12.166097,13.9054064,10.272314,5.302182200000001,-2.5792043
50,34,Se,8.6587935,1.8353638,83.918466761,14.496471600000001,25.110597600000002,-8.8373322,6.4916147,-22.2602594,-5.005327500000001,8.6785055,13.5673702,4.7018498,4.868503800000001,1.4496386,-4.0096333
49,35,Br,8.671329400000001,4.656251,83.916496417,16.427053800000003,22.2556091,-7.9934091,1.9758802000000002,-15.4027339,-5.863769100000001,6.8406913000000005,9.7315223,-3.8886551,10.5216077,3.4699799,0.39662189999999997
48,36,Kr,8.7174473,-2.6803708000000004,83.91149772708,17.9901863,19.4233924,-7.1047739000000005,-1.789765,-14.3877732,-11.4400239,10.52002,10.7145952,-11.017653200000002,5.7701383,0.4017606,-0.4039241
47,37,Rb,8.676224399999999,0.8906058000000001,83.914375223,19.713798,16.838240000000003,-6.2948654,-5.8645353,-8.0342245,-11.032677,8.7596532,7.057302300000001,-18.5651321,11.5436276,2.8012797000000003,3.8644784
46,38,Sr,8.6775132,-6.7551411,83.913419118,20.7821541,14.635727300000001,-5.1810413,-9.227888199999999,-7.947908000000001,-16.5152264,11.9232828,8.8679119,-26.479,6.2490394,-0.3288214,2.6930209
45,39,Y,8.5877812,-2.4727471000000003,83.92067106,21.972978,12.2845687,-4.1438787,-12.7005968,-2.1127709,-16.0540978,9.7600853,4.385794799999999,-36.194,12.8264302,2.4977501,7.2086667
44,40,Zr,8.5490301,-10.2278497,83.923325663,23.950265,9.989571900000001,-3.5351406,-17.252,-1.9130477000000001,-21.8800999,13.581350700000002,6.5049912,,7.3532123,-0.8447183,5.7528443
43,41,Nb,8.4179563,-7.024,83.934305711,25.527,7.7076872000000005,-2.4705958999999997,-23.493000000000002,3.7228585,-22.925,11.6522503,2.571154,,13.1310278,1.1946310000000002,10.1654783
42,42,Mo,8.325,-16.47,83.941846,29.943,5.134,-1.835,,4.453,-30.922,15.901,3.846,,8.35,-2.946,9.001
41,43,Tc,8.120000000000001,,83.959527,,0.46900000000000003,-1.705,,12.624,,14.452,-1.351,,13.38,-1.3760000000000001,14.307
55,30,Zn,8.09,14.644,84.973054,4.953,,-11.435,28.023,,10.923,1.341,18.669,47.314,6.001,5.494,-8.734
54,31,Ga,8.2535687,13.3793679,84.957333,6.6295664,33.932,-10.259,23.445093099999998,-33.313,10.333058300000001,3.7212406000000002,15.203000000000001,38.831419600000004,7.257000000000001,7.433956500000001,-8.368
53,32,Ge,8.401768899999999,10.0657253,84.942969658,8.2896207,31.411,-9.3486734,19.290218199999998,-28.582,4.6588233,3.0463096000000003,16.318261500000002,28.3569139,6.8445089,4.6713538,-5.1630643
52,33,As,8.5109851,9.2244929,84.932163658,9.662456700000002,28.5099656,-7.9861063,15.3863264,-26.3839867,4.687260500000001,5.4069020000000005,12.329687900000001,18.9781887,8.4980972,7.0899783,-4.6120244
51,34,Se,8.6103045,6.1618335,84.922260758,13.215738,26.0151449,-8.5468657,9.0666957,-21.554180799999997,-2.7018687,4.5372325,13.8490479,8.6896447,7.9664934999999995,2.5558376,-1.3521677
50,35,Br,8.673592600000001,2.9048622,84.915645758,15.7043935,23.484089100000002,-8.4670803,3.5918622,-20.0108814,-4.2074512,8.8637022,9.916718999999999,-0.7333472000000001,7.4758717,3.8824718,-2.8236489000000002
49,36,Kr,8.6985633,0.687,84.91252726,17.6323335,20.7177397,-7.5162375,-0.37705099999999997,-12.8215812,-9.7926842,7.112313400000001,10.9862174,-8.3051446,8.2441875,0.8823911000000001,1.7599565000000001
48,37,Rb,8.6974416,-1.0640509999999999,84.91178973604,19.2393374,17.7315617,-6.6152058,-4.325209399999999,-11.6732174,-9.5890784,10.4796842,7.0169664,-15.887656600000001,8.534109700000002,3.2885096,0.9777381
47,38,Sr,8.6757193,-3.2611584,84.912932041,20.448310300000003,15.6905885,-5.8320065,-7.9280936,-5.9529155000000005,-15.2801685,8.5250275,8.6332862,-23.5935294,8.6781567,-0.0514218,5.1349076
46,39,Y,8.628148600000001,-4.6669352,84.916433039,21.7790954,13.349433999999999,-4.8103435,-11.562447200000001,-5.3721278,-14.4917572,12.0190101,4.4815221,-31.992,9.666291300000001,3.0319863000000002,3.9920836
45,40,Zr,8.5640394,-6.895512,84.921443199,23.4061727,10.9555227,-4.0719778,-15.6654358,0.1854132,-20.052671699999998,9.824822000000001,6.5697279,-42.545,9.741283,-0.2470435,8.4812685
44,41,Nb,8.4737117,-8.7699238,84.928845836,24.80941,8.6519542,-2.9916814,-20.43,0.3257841,-20.181,13.157159700000001,2.1469631,,10.3427824,2.1984342999999997,7.4308155
43,42,Mo,8.361332,-11.66,84.938260736,27.312,6.176042900000001,-2.4102578,-26.879,6.6229607999999995,-27.881,11.411,3.6048889,,10.813957,-0.836,11.7507052
42,43,Tc,8.215,-15.22,84.950778,30.673000000000002,2.815,-1.9140000000000001,,8.055,,16.221,-1.031,,11.201,-0.616,11.606
41,44,Ru,8.027000000000001,,84.967117,,-1.1320000000000001,-1.595,,16.251,,,0.219,,11.4,,15.386000000000001
55,31,Ga,8.182,15.64,85.963757,5.809,34.618,-10.455,25.202,,11.292,2.087,15.949,41.872,8.781,7.394,-7.723
54,32,Ge,8.35463,9.5622229,85.946967,7.3941277,32.148,-9.5108824,21.103248500000003,-31.589000000000002,5.7179072,4.3478181000000005,16.9448389,33.865749199999996,5.4050166,4.721257,-7.463
53,33,As,8.4567215,11.541025600000001,85.936701532,9.2512176,29.4459554,-8.4563401,16.670111600000002,-26.5070618,5.380177300000001,3.8443157,13.1276939,23.7848529,9.8970926,6.878347799999999,-4.0586189
52,34,Se,8.5818224,5.129086,85.924311732,10.6980808,26.9326822,-7.5130159999999995,12.7625007,-24.6687196,0.0009851,6.1608484,14.6029943,14.0199245,6.0611999,4.030211400000001,-3.8803309
51,35,Br,8.632365900000002,7.6334147,85.918805432,13.991803,24.3566352,-7.951749700000001,7.1147412999999995,-19.732080300000003,-2.2232386,5.1281008,10.507587299999999,3.6508386,11.0262763,4.5723370999999995,-0.3165276
50,36,Kr,8.7120295,-0.5186734000000001,85.91061062468,16.968966799999997,21.8958875,-8.0966968,1.2574238,-18.141002,-9.1696533,9.8566533,11.979168600000001,-5.2966525,5.2282254,0.6121004000000001,-2.2787306
49,37,Rb,8.696901400000002,1.7760972,85.911167443,19.1306642,19.5418504,-7.6732418,-3.4639028,-11.4604952,-9.7150309,8.65098,8.555633,-13.612941800000002,10.4031497,2.107696,1.9131207
48,38,Sr,8.7084566,-5.24,85.90926072473,20.016155599999998,16.6616966,-6.356220599999999,-6.5540763,-10.3317302,-14.7522866,11.491128100000001,9.6447302,-20.4121727,5.9466818,-0.5884052000000001,1.1139457
47,39,Y,8.6384293,-1.3140763,85.914886095,21.5312967,14.102067400000001,-5.520203,-10.149039,-4.4047302,-14.179221799999999,9.5122866,5.4687812000000005,-27.713,12.0772875,2.3785709,5.4339417999999995
46,40,Zr,8.614052299999999,-8.8349627,85.916296814,22.689967499999998,11.8973853,-4.383877000000001,-13.8580964,-4.1547048,-19.7606574,12.8651454,7.4158631999999995,-38.199,6.6362228,-0.8992962,4.4749943000000005
45,41,Nb,8.5022231,-5.023133700000001,85.925781536,24.082854400000002,9.8175636,-3.4948791999999997,-17.564,1.4190995,-19.695618500000002,10.925694700000001,3.2478357,,12.9984384,1.641654,8.7180135
44,42,Mo,8.434717500000001,-12.541,85.931174092,26.083000000000002,7.2671771,-2.9217797,-24.341,1.7752979,-26.332,14.6724849,5.120214,,7.7937224,-1.6339616000000001,7.4471346
43,43,Tc,8.28,-11.8,85.944637,30.013,4.954,-2.186,,7.42,-29.011,13.792,1.35,,13.311,-0.366,11.689
42,44,Ru,8.133000000000001,,85.957305,,0.178,-1.825,,10.451,,17.211000000000002,1.209,,8.641,-3.586,12.216000000000001
56,31,Ga,8.124,14.72,86.969007,5.268,,-10.904,26.748,,12.459,3.181,16.097,45.022,6.941,7.824,-9.503
55,32,Ge,8.285,12.028,86.953204,6.609,33.068,-9.725,22.836000000000002,-30.818,7.301,2.262,17.119,37.119,6.865,5.368,-6.114
54,33,As,8.4138521,10.8082192,86.940291716,8.5713977,30.4517968,-8.7857008,18.2737719,-29.147000000000002,6.8139437,4.727082,13.5069579,28.979888,8.2163202,7.394576900000001,-5.877375
53,34,Se,8.529092,7.4655526000000005,86.928688616,10.155123900000001,27.8806481,-7.8746064,14.283398100000001,-24.3151771,1.1348104,3.9942756,14.7529542,18.4539437,7.4738263,4.2914906,-2.6312954
52,35,Br,8.6059105,6.817845500000001,86.920674016,11.458843100000001,25.2804755,-6.6472698,10.7061161,-22.2185068,1.3026725,6.3307421999999995,10.6774812,9.1267017,9.232766600000001,6.9201003000000005,-2.3917151
51,36,Kr,8.675284,3.8882706,86.913354759,15.3718264,22.8738281,-7.7939036,4.1705456000000005,-17.495326700000003,-6.033846400000001,5.515173,12.3662407,-1.3623843,8.576754600000001,1.9376186,0.8846018
50,37,Rb,8.7109843,0.2822749,86.909180529,18.573097,20.600265200000003,-8.0089963,-1.5794145000000002,-16.2545114,-8.1460198,9.922117,8.6210967,-10.723308600000001,7.5933462,2.7055990000000003,-1.1683050000000001
49,38,Sr,8.705236300000001,-1.8616894,86.90887749454,19.9194229,17.9776779,-7.314349,-5.5329299,-8.9033716,-13.6682947,8.4282947,9.422044900000001,-17.9952593,7.9980712,-0.2570467,3.2056709999999997
48,39,Y,8.6748451,-3.6712405,86.9108761,21.3188919,15.428988499999999,-6.3726635,-9.143894099999999,-7.5603555,-13.120681699999999,11.8066053,5.7842583,-25.3283355,8.7957097,2.4952484,2.3869897
47,40,Zr,8.6236545,-5.4726536,86.914817338,22.3145866,12.821799,-4.9744469,-12.462329400000002,-2.1130178,-18.2844039,9.449441199999999,7.3530178,-33.617,9.205791800000002,-0.5886521,6.948835900000001
46,41,Nb,8.5517579,-6.9896757,86.920692473,23.7374449,10.6103038,-4.0937368,-16.1844414,-1.8803642,-17.8348839,12.8117502,3.1944405000000002,,10.0115102,2.4112544,5.6663485
45,42,Mo,8.4624243,-9.1947656,86.928196198,25.517693,8.2875633,-3.3980735,-21.155,3.7952352,-23.386,10.8452082,5.0397275,,10.1056739,-0.8269195,10.1832771
44,43,Tc,8.3477449,-11.96,86.938067185,27.983,5.9883096,-2.5020572000000003,,4.1550381,-25.991,14.191,0.8680955,,10.5305158,1.344,9.150193100000001
43,44,Ru,8.201,,86.950907,31.242,2.798,-1.815,,11.092,,14.031,1.449,,10.831,-3.165,14.087
56,32,Ge,8.236,10.93,87.957574,6.2620000000000005,34.036,-10.114,24.365000000000002,,8.027000000000001,4.001,17.939,40.172000000000004,4.9510000000000005,5.089,-8.773
55,33,As,8.351,13.434000000000001,87.94584,7.63,31.268,-8.781,20.266000000000002,-28.869,7.905,2.903,14.148,32.159,9.661,7.538,-5.059
54,34,Se,8.495004499999999,6.831764000000001,87.93141749,9.5236641,29.0622186,-8.1606839,15.8070923,-27.583000000000002,1.9361641,5.5293885000000005,15.555260700000002,24.0374256,5.7887534,4.169004,-5.114374300000001
53,35,Br,8.563747900000001,8.9753282,87.92408329,11.2263421,26.3317598,-7.2873149999999995,11.8930373,-22.3870248,1.9222456,4.895599900000001,11.5788056,13.5830615,10.498014999999999,6.5617329,-1.8804130000000001
52,36,Kr,8.6568499,2.917709,87.914447879,12.5682557,23.7660623,-6.1684808,8.2303333,-20.5541338,-3.164812,7.0530826,13.0885812,3.9375784,6.6517728,3.7482382,-1.6312483
51,37,Rb,8.681115400000001,5.3126243,87.91131559,16.0046381,21.5546854,-7.250826,1.6900243000000001,-16.0062902,-5.800246100000001,6.082521,9.1884447,-6.4374494,11.367478499999999,3.7353914,1.6128761
50,38,Sr,8.732595799999999,-3.6226,87.905612253,19.541165099999997,19.233895,-7.9071994000000005,-4.2927549,-14.5010689,-12.974559800000002,11.1128704,10.612798300000001,-15.2350758,5.5361808,-0.8902329,-0.7948859
49,39,Y,8.6825396,-0.6701549,87.909501274,21.1585651,16.1299683,-6.9649700999999995,-8.1274737,-6.9901983,-13.023200300000001,9.351959800000001,6.707923399999999,-22.628727299999998,10.934878000000001,1.6683161,3.5147141000000004
48,40,Zr,8.6660339,-7.4573187,87.910220715,21.8024865,13.683716200000001,-5.4042094,-10.9423209,-6.0377685,-17.825699,12.3530453,7.8994578,-29.289,6.365033,-0.9226873000000001,3.1208181
47,41,Nb,8.5724013,-3.4850021000000004,87.918226476,23.1801305,11.4663974,-4.7020317,-14.5012536,-0.4421391,-17.358056,10.368380199999999,4.1133796,-39.311,12.5082754,1.8676962000000001,7.3169784
46,42,Mo,8.5239087,-11.016251500000001,87.921967779,24.718262,9.2954717,-3.6897767,-18.347,-0.6283775,-23.067819500000002,13.8730539,6.1010311,,7.1583148,-1.5428137,6.1350453
45,43,Tc,8.3898338,-7.331,87.933794211,26.243000000000002,7.1141829,-2.9013749,-24.810000000000002,4.9152204,-24.012,12.051568,2.0744553999999997,,13.1514326,0.703514,10.255784799999999
44,44,Ru,8.298,-17.479,87.941664,30.712,4.807,-2.594,,5.256,,16.681,3.939,,7.941,-3.626,8.817
43,45,Rh,8.09,,87.960429,,-0.132,-1.585,,13.541,,,-1.581,,13.621,-1.366,14.636000000000001
57,32,Ge,8.161,13.49,88.96453,5.593,,-10.365,25.952,,9.338000000000001,1.592,17.939,43.496,6.541,5.5840000000000005,-7.332
56,33,As,8.304,12.462,88.950048,7.055,32.238,-9.211,21.744,-31.429000000000002,9.283,4.152,14.299,35.182,7.771,7.734,-7.123
55,34,Se,8.4352799,9.281873,88.936669058,8.7089018,29.98,-8.2938875,17.543396100000002,-26.762,3.6522508,3.1795133,15.832,27.2166281,7.3363222,4.8338064,-3.9460695
54,35,Br,8.530780199999999,8.2615231,88.926704558,10.5252221,27.2343,-7.510035200000001,13.4381273,-25.114,3.3457060000000003,5.6296222,11.6790392,19.4369308,8.8626684,7.0929591,-3.6657196
53,36,Kr,8.6148158,5.1766042,88.917835449,11.968899799999999,24.6876039,-6.5470654,9.673231900000001,-19.9405624,-1.9981081,4.9158171,13.1087983,8.3421792,8.0666979,3.9605219000000003,-0.38621710000000004
52,37,Rb,8.6641895,4.496627800000001,88.912278136,13.2572333,22.3986554,-5.561836100000001,5.9988035,-18.2854025,-1.862088,7.1747123,9.3100743,-1.086644,9.7079392,6.4173324,-0.4337353
51,38,Sr,8.705923,1.5021757,88.907450808,17.4715862,20.077437699999997,-7.1536017,-1.3310527,-13.8067021,-9.9813158,6.3587158,10.888993000000001,-11.1940824,9.0995821,1.4020313000000002,2.7030517
50,39,Y,8.714011000000001,-2.8332285,88.905838156,20.835451300000003,17.691342799999997,-7.9687774000000005,-7.085447500000001,-12.391168799999999,-12.1536464,11.4834915,7.0785445000000005,-20.316345600000002,7.8796813000000006,1.6759528000000001,0.6822026
49,40,Zr,8.673386500000001,-4.2522191000000005,88.908879751,21.6734633,14.575839400000001,-6.1995999,-9.8630296,-4.245316,-16.777736700000002,9.320418,7.867916,-26.5085498,8.851220300000001,-0.7308187,5.2915282
48,41,Nb,8.6168184,-5.6108104999999995,88.913444696,22.8938979,12.1853097,-5.208539200000001,-13.230898,-3.6156970000000004,-16.0105197,12.525517599999999,4.2858519,-34.975,9.4321989,2.2073240000000003,4.3037473