N,Z,element,be_per_a,beta_decay_energy,atomic_mass,s2n,s2p,qa,q2b,qep,qbn,s1n,s1p,q4b,qda,qpa,qna
81,71,Lu,7.926,,151.96412,24.793,1.5090000000000001,2.918,,10.061,,11.193,-0.8310000000000001,,16.119,4.772,16.165
97,56,Ba,8.023,9.59,152.960848,7.673,,-5.8950000000000005,18.44,,4.749,2.931,14.629,30.861,8.521,6.564,-1.833
96,57,La,8.081,8.85,152.950553,8.892,26.358,-5.1850000000000005,15.509,-24.219,4.849,4.841,11.739,24.588,9.591000000000001,8.694,-2.243
95,58,Ce,8.134,6.659,152.941052,9.827,24.548000000000002,-4.5040000000000004,12.421,-20.589000000000002,0.777,4.001,12.909,17.650000000000002,9.111,6.265000000000001,0.626
94,59,Pr,8.172037099999999,5.7618901,152.933903511,10.931444299999999,22.836092700000002,-3.7734849,9.0795137,-19.567,0.5098557,5.8817376,9.877,11.7989769,10.3673755,8.1424284,0.3890599
93,60,Nd,8.2045832,3.3176236,152.927717868,12.5298323,20.6832637,-3.0853748999999997,5.2296795000000005,-15.639000000000001,-4.1472293,5.2520343,10.8612807,5.5525643,10.1601087,5.8341845,3.1628853
92,61,Pm,8.2211536,1.9120559000000001,152.924156252,13.4043793,18.446264,-2.0335460000000003,2.7194632000000003,-14.178904300000001,-3.9563441,7.4648529,7.787311,0.6656067000000001,11.0059872,7.8960031,3.2989079
91,62,Sm,8.2285373,0.8074072999999999,152.922103576,14.1262154,16.1948179,-0.6094402,0.32288479999999997,-9.699366900000001,-7.7428773,5.868399999999999,8.5945618,-3.4168626,11.537008,5.9013317,6.766294200000001
90,63,Eu,8.2287011,-0.48452249999999997,152.921236789,14.857004400000001,14.5591484,0.2720222,-2.0538564000000004,-9.4019691,-6.731480899999999,8.550284600000001,5.893460200000001,-8.355392700000001,11.9198205,8.5479244,5.876271399999999
89,64,Gd,8.220420899999999,-1.569334,152.921756945,14.8366598,12.884406199999999,1.8280382,-3.7397474,-5.4089377999999995,-10.236958399999999,6.2469584000000005,7.2834151,-12.4162621,12.4809612,6.7734807,9.814793900000002
88,65,Tb,8.205050400000001,-2.1704134,152.923441694,15.832705500000001,11.238454,2.7027909,-6.3015362999999995,-5.7140812,-9.266964900000001,8.6676245,3.8952775,-17.341000400000002,13.5861173,9.314496100000001,9.125161700000001
87,66,Dy,8.185751400000001,-4.1311229,152.925771729,16.5334446,9.5322185,3.5590607,-8.6765147,-1.7248640000000002,-13.609879000000001,7.0965514999999995,5.7148639999999995,-21.984,13.191151099999999,6.8266474,12.267256600000001
86,67,Ho,8.1536372,-4.5453918,152.930206671,17.531963800000003,7.9664752,4.0516499,-11.0394641,-1.5837412,-12.583173500000001,9.4787561,2.1830816,-26.636611600000002,14.4511214,9.1615996,11.7401173
85,68,Er,8.1188154,-6.4940723,152.93508635,18.3430278,6.2922359,4.8023924,-13.307,2.3623102,-16.8177214,8.0377816,4.1510173,-33.166000000000004,13.866871100000001,6.343265000000001,14.489338400000001
84,69,Tm,8.0712571,-6.813,152.942058023,19.3436324,4.9278057,5.2483281,-15.5971474,2.3430549999999997,-15.773541400000001,10.3236491,0.7613623,,15.004487600000001,8.7227685,13.619684300000001
83,70,Yb,8.022,-8.784,152.949372,21.76,3.471,4.157,-19.859,6.0520000000000005,-21.809,8.961,2.728,,14.323,4.195,16.318
82,71,Lu,7.9590882,-11.075000000000001,152.958802248,24.218,2.1817909,3.14,,6.0558454,,13.025,-0.605953,,13.877696700000001,5.319,13.762
81,72,Hf,7.882000000000001,,152.970692,,0.336,3.605,,11.681000000000001,,,1.167,,13.711,2.335,17.176000000000002
98,56,Ba,8.001,8.61,153.964659,7.453,,-6.355,19.3,,5.0680000000000005,4.521,,32.660000000000004,6.921,6.224,
97,57,La,8.051,10.69,153.955416,8.382,26.978,-5.785,16.330000000000002,,5.309,3.541,12.349,26.737000000000002,10.791,8.274000000000001,-1.603
96,58,Ce,8.116,5.64,153.94394,9.382,25.188,-4.755,13.36,-23.039,1.278,5.381,13.449,20.236,7.781000000000001,5.955,-1.633
95,59,Pr,8.1472994,7.72,153.937885165,10.244168400000001,23.148,-3.9733709,10.407,-19.089,1.3994593,4.3624307,10.239,13.878764499999999,11.832,8.229511,1.0971389
94,60,Nd,8.1923491,2.6870000000000003,153.929597404,11.572575,21.177,-3.1576554000000003,6.8759614000000004,-17.959,-3.002917,6.3205407,11.3000837,8.1267558,8.889274799999999,6.0641343,1.291858
93,61,Pm,8.204717,4.1889614,153.926712791,13.1547699,19.0864744,-2.3910091,3.4717645000000004,-13.9870837,-3.7778611,5.689917,8.2251937,1.8901044,12.593868200000001,7.5406364,4.1594813
92,62,Sm,8.226837900000001,-0.7171969,153.922215756,13.8352225,16.883842400000002,-1.2005284,1.2507944,-12.4141551,-7.1594153,7.9668226,9.0965315,-2.061549,9.5097118,5.7947517,4.134022
91,63,Eu,8.2171006,1.9679913,153.922985699,14.992503000000001,15.0618405,-0.565947,-1.5816601000000001,-8.3793346,-6.9267408999999995,6.4422184,6.4672787,-7.0989884000000005,13.7354175,7.7021683,7.294295600000001
90,64,Gd,8.2247996,-3.5496514,153.920872974,15.1416906,13.5213229,0.9200617,-3.3123434,-8.435270000000001,-10.4640661,8.8947322,7.6278627,-11.1013842,9.8929489,5.8107953,6.516524
89,65,Tb,8.196669700000001,0.237308,153.924683681,15.582039199999999,11.846148800000002,2.210747,-5.5173283,-4.0782112,-9.084828100000001,6.9144147,4.5627337,-15.7295644,15.261404,8.8962688,10.1427937
88,66,Dy,8.193130499999999,-5.7546363000000005,153.92442892,16.418687600000002,10.264653200000001,2.9451204,-7.7890407999999995,-4.8000418,-13.453259000000001,9.3221361,6.3693757,-20.4619219,11.034096,6.0935812,9.4413078
87,67,Ho,8.1506825,-2.0344045,153.930606776,17.1773788,8.5000169,4.0414946,-10.2122361,-0.6147394,-12.244014499999999,7.6986227000000005,2.7851529,-24.973,16.1893918,8.9770649,12.6305645
86,68,Er,8.1323919,-8.177831600000001,153.932790799,18.2473917,7.0649528,4.2797284,-12.672881100000001,-0.7507483,-16.7036823,10.209610000000001,4.8818712,-29.875,11.7104689,5.881827400000001,11.793816500000002
85,69,Tm,8.074209,-4.4950495,153.941570062,18.8494998,5.4004487,5.0938336,-14.76,3.2959604,-15.339,8.5258508,1.2494314,,16.7838831,8.703203100000001,14.8420059
84,70,Yb,8.0399402,-10.265,153.946395696,19.804342700000003,4.009816600000001,5.4743142,-17.202,3.2456181,-19.6279487,10.844,3.2484543,,12.4989928,5.703575799999999,13.9805996
83,71,Lu,7.968,-6.937,153.957416,22.387,2.524,4.399,,7.017,-20.438,9.363,-0.2040569,,17.315,6.74,16.751
82,72,Hf,7.918,,153.964863,,1.037,3.6750000000000003,,7.141,,13.501,1.643,,11.403,2.434,14.459
98,57,La,8.028,9.85,154.95928,8.013,,-6.075,17.485,,6.218,4.472,12.299,29.01,9.25,8.543000000000001,-3.154
97,58,Ce,8.087,7.635,154.948706,9.013,25.888,-5.265,14.504,-22.149,2.008,3.632,13.539,22.411,8.99,6.3740000000000006,-0.524
96,59,Pr,8.1310398,6.8684609000000005,154.940509193,9.9894818,23.934,-4.5299121,11.524670400000002,-21.175,2.0929489,5.6270511,10.485,16.4030017,10.205,8.429,-0.47900000000000004
95,60,Nd,8.170305,4.6562095,154.933135598,11.096052600000002,21.952,-3.4836538999999997,7.9074094,-17.353,-2.0885119,4.775511900000001,11.7131649,9.786502,9.9955005,6.3383291,2.343
94,61,Pm,8.1952977,3.2511999,154.928136951,12.4346385,19.949458200000002,-2.5852402000000003,4.8783313,-16.3693745,-2.5557600000000003,6.7447215,8.6493745,4.3104337,11.101181,8.0737129,2.4644665
93,62,Sm,8.211225800000001,1.6271314000000001,154.924646645,13.7737825,17.438768,-1.672938,1.8790926,-11.9005744,-6.5241569,5.80696,9.213574399999999,-1.0352662000000001,11.1676047,5.927318100000001,5.6048599999999995
92,63,Eu,8.216676,0.2519612,154.922899847,14.593506600000001,15.7482758,-0.8569927,-0.5678976,-10.8407058,-6.1832969,8.1512882,6.651744300000001,-5.7785381,11.4525293,7.8086955,5.0825337
91,64,Gd,8.2132541,-0.8198588,154.922629356,15.3299903,14.0881811,0.0812659,-2.9143588,-6.9037056,-9.984909600000002,6.4352581,7.620902500000001,-9.8611261,12.0079753,5.6822569000000005,8.3390813
90,65,Tb,8.2029173,-2.0945,154.923509511,16.0794654,12.460915000000002,0.9777429,-5.2106405,-6.8010436,-8.927742700000001,9.165050800000001,4.8330523,-14.6245182,12.343311700000001,8.3209195,7.2844628
89,66,Dy,8.184357,-3.1161405,154.925758049,16.1553789,10.8509375,2.6080650999999997,-6.9467673,-2.7385523,-12.587879000000001,6.8332427,6.288203800000001,-18.653325400000003,12.8684777,6.4254195,11.1977665
88,67,Ho,8.1592055,-3.8306268,154.929103363,17.1703612,9.304131,3.1588259,-9.413877699999999,-3.1720633,-11.5061431,9.471738499999999,2.9347552,-23.4947427,13.8142048,8.9422195,10.323907
87,68,Er,8.1294444,-5.5832509,154.93321571,17.8851263,7.6439176,4.1183002,-11.7065581,0.8958716,-15.8533478,7.6755163,4.8587647,-27.899,13.513708699999999,6.2595188,13.555193300000001
86,69,Tm,8.088376,-6.1233072,154.939209576,18.7959477,6.1917895,4.571909,-14.080865,0.7244862000000001,-14.7651464,10.2700969,1.3099184000000001,-32.638,14.5515678,8.7383524,12.625116700000001
85,70,Yb,8.0438234,-7.9575578,154.945783216,19.486,4.613874200000001,5.3387604,-16.193,4.8133889,-18.907,8.6418392,3.3644427,,14.180802700000001,6.0817198,15.6440066
84,71,Lu,7.9874369,-8.235,154.954326005,20.3122301,3.1503886000000003,5.8016414,-18.557000000000002,4.5931151,-17.886,10.950000000000001,-0.0980656,,15.325000000000001,8.5893853,14.821624700000001
83,72,Hf,7.929,-10.322000000000001,154.963167,23.152,1.728,4.808,,8.333,,9.651,1.932,,14.777000000000001,3.976,17.607
82,73,Ta,7.8580000000000005,,154.974248,,0.19,3.887,,8.39,,,-1.4529999,,14.023,,15.08
99,57,La,7.997,11.769,155.964519,7.663,,-6.346,18.399,,6.658,3.1910000000000003,,31.117,10.58,8.284,
98,58,Ce,8.068,6.63,155.951884,8.743,26.478,-5.635,15.382,,2.524,5.111,14.178,24.541,7.421,6.104,-2.704
97,59,Pr,8.1052337,8.7528229,155.9447669,9.7323408,24.498,-4.5840000000000005,12.7175404,-20.808,2.7631711,4.1052897,10.958,18.6335372,11.481,8.324,0.257
96,60,Nd,8.1563265,3.9647175000000003,155.935370358,10.765163699999999,22.561,-3.6470000000000002,9.1586054,-19.711000000000002,-1.3334422,5.9896518,12.0757656,12.3332034,8.3682794,6.2304148999999995,0.354
95,61,Pm,8.1767263,5.193887800000001,155.931114059,12.0428812,20.885187300000002,-2.8336932000000004,5.9159968,-16.0404832,-2.0469599,5.2981598000000005,9.1720223,5.924162900000001,12.1235619,8.0275875,3.0480444
94,62,Sm,8.205005400000001,0.722109,155.925538191,13.0478077,18.3590751,-1.6359877,3.174598,-14.365910099999999,-5.6137163,7.240847700000001,9.7097006,1.1686513,9.616674100000001,6.1513233000000005,3.6160466
93,63,Eu,8.2046192,2.4524890999999998,155.924762976,14.4871135,16.394184000000003,-1.2532916,0.0081661,-10.431809600000001,-6.083863999999999,6.335825300000001,7.1806095999999995,-4.544441300000001,13.0835265,7.3412702,6.2115613000000005
92,64,Gd,8.2153253,-2.444323,155.92213012,14.971611300000001,14.6577117,-0.19727180000000002,-2.0059468,-9.633098700000001,-9.3562119,8.536353100000001,8.0059673,-8.3236505,9.9138406,5.6961884000000005,5.6711282
91,65,Tb,8.1946415,0.4383762,155.924754209,16.0769397,12.9305856,0.3725738,-4.5526074,-5.5616444000000005,-9.006388999999999,6.911889,5.3096832,-13.2565933,14.326154800000001,7.6559889000000005,8.922858399999999
90,66,Dy,8.1924366,-4.9909836,155.924283593,16.278007900000002,11.4009705,1.7530013,-6.3177037,-5.7480594,-12.5609057,9.4447652,6.5679182,-17.2638488,10.3381272,5.6482788,7.999959700000001
89,67,Ho,8.155428,-1.3267201,155.929641634,17.0416606,9.9596383,2.7539849,-8.7039859,-1.5769346000000002,-11.4005489,7.5699221,3.6714346,-21.838853200000003,15.5664188,8.468848900000001,11.4216094
88,68,Er,8.1419084,-7.3772657,155.931065926,17.749345,8.3956102,3.4813646,-10.9461451,-2.3447145000000003,-15.6570796,10.0738288,5.460855,-26.3921683,11.1385027,5.6644462,10.577916
87,69,Tm,8.089603199999999,-3.5688793999999997,155.938985746,18.549910800000003,6.772980700000001,4.345302800000001,-13.1348673,1.9164108000000002,-14.4031211,8.279813899999999,1.914216,-30.833000000000002,16.4813639,8.4963201,13.8240589
86,70,Yb,8.061710699999999,-9.565987999999999,155.942817096,19.476080999999997,5.2385059,4.8097648,-15.4460232,1.6546634,-18.791799599999997,10.8342418,3.9285875000000003,,11.8724117,5.5711272,12.8475465
85,71,Lu,7.995375200000001,-5.8800352,155.953086606,20.176000000000002,3.8503495,5.595813000000001,-17.699,5.637400400000001,-17.461000000000002,9.225811600000002,0.48590679999999997,,16.9433501,8.324,15.9194621
84,72,Hf,7.9526676,-11.819,155.959399083,21.232,2.4653638,6.0259559000000005,,5.3941284,-21.903,11.581,2.5634294,,12.558,5.420002900000001,14.987
83,73,Ta,7.872,,155.972087,,0.912,4.996,,9.255,,10.084,-1.0197972,,17.44,6.163,18.021
99,58,Ce,8.037,8.504,156.957133,8.293000000000001,,-5.885,16.564,,3.448,3.182,14.169,26.747,8.711,6.463,-1.364
98,59,Pr,8.085817,8.0593109,156.9480031,9.1621066,25.082,-4.8,13.8623102,-22.673000000000002,3.6960061,5.0568168,10.904,21.0243285,10.056000000000001,8.649000000000001,-1.2590000000000001
97,60,Nd,8.1321671,5.8029994,156.939351074,10.3529566,23.292,-4.009,10.183537000000001,-18.963,-0.39858730000000003,4.3633048,12.3337807,14.3297791,9.6320257,6.2295409,1.372
96,61,Pm,8.1641458,4.380537599999999,156.933121298,11.4997464,21.4597228,-3.1535422,7.1620183,-18.1367801,-1.0076988,6.2015866,9.383957200000001,8.466732400000001,10.6974872,8.1465415,1.2088885
95,62,Sm,8.1870642,2.7814807,156.928418598,12.6290841,18.971799599999997,-1.7721898,4.1462421,-13.764494800000001,-4.6661275,5.3882364,9.7997773,2.7470156,10.9731591,6.4530039,4.548350900000001
94,63,Eu,8.1997975,1.3647614000000001,156.925432556,13.7834334,17.0970707,-1.2360468,1.3047141,-12.5812579,-4.9951191,7.447608100000001,7.3873701,-2.6262718,11.4428784,7.8604846,4.453870200000001
93,64,Gd,8.2035072,-0.0600473,156.923967424,14.8962336,15.210632200000001,-0.6887523,-1.3992264,-8.752131499999999,-8.8042034,6.3598805,8.0300226,-7.410247900000001,11.7052483,5.7785263,7.2780702
92,65,Tb,8.198141600000001,-1.3391791000000002,156.924031888,15.6560451,13.5234535,0.1787023,-3.9309859,-7.9699752,-8.3057799,8.7441561,5.5174862000000005,-12.0545695,12.017256900000001,7.806565,6.620920600000001
91,66,Dy,8.184628700000001,-2.5918068,156.925469555,16.411366,11.932313200000001,1.0333589,-6.0110214,-4.1783071000000005,-11.9575844,6.9666008,6.62263,-16.004757100000003,12.5365772,5.5960926,9.9280911
90,67,Ho,8.1631373,-3.4192145999999997,156.928251974,16.9356997,10.160365200000001,2.0558317,-8.1235836,-4.0308231999999995,-10.6924977,9.3657776,3.5924470000000004,-20.393044500000002,13.033884,8.4252075,8.9702464
89,68,Er,8.1363757,-4.704369,156.931922652,17.3471119,8.835650600000001,3.3046329,-9.9937357,-0.1732324,-14.6505489,7.2732831,5.164216000000001,-24.559,13.3369581,6.0897858,12.6267691
88,69,Tm,8.1014285,-5.2893666999999995,156.936973,18.2259938,7.2474221,3.877879,-12.269461,-0.459847,-13.5150593,9.946179899999999,1.7865672,-29.1133312,14.2107002,8.759750200000001,11.576501700000001
87,70,Yb,8.0627551,-6.9800942,156.94265136799999,19.059934300000002,5.7886822,4.6218539000000005,-14.565,3.5027996,-17.7916805,8.2256925,3.8744662,-33.730000000000004,13.9168161,5.8712854,14.831463900000001
86,71,Lu,8.0133128,-7.585,156.950144807,20.037397900000002,4.3918388,5.1078759,-16.8438703,3.1056281,-16.6916215,10.811586300000002,0.46325130000000003,,14.7736031,8.3563301,13.633726600000001
85,72,Hf,7.96,-9.259,156.958288,20.688,2.93,5.8800072000000005,-19.165,7.122,-20.925,9.107,2.444,,14.401,5.6759502,16.724
84,73,Ta,7.896060800000001,-9.906,156.968227445,21.751,1.6288335999999999,6.3545986999999995,,6.814631,,11.666,-0.9345958000000001,,15.425,7.998,15.717
83,74,W,7.828,,156.978862,,-0.042,5.1850000000000005,,10.841000000000001,,,0.978,,15.009,,18.686
100,58,Ce,8.015,7.61,157.960773,7.863,,-6.045,17.295,,3.8240000000000003,4.681,14.759,28.712,7.221,6.255,
99,59,Pr,8.059000000000001,9.685,157.952603,8.843,25.678,-5.045,14.956,-22.369,4.273,3.787,11.509,23.12,11.381,8.494,-0.5730000000000001
98,60,Nd,8.1149529,5.2710196,157.94220562,9.7756296,23.593,-4.04,11.4167257,-21.194,0.3906746,5.4123248,12.6892886,16.8548462,8.3249907,6.4442672000000005,-0.40900000000000003
97,61,Pm,8.1433622,6.145706199999999,157.936546948,11.0819316,22.234778,-3.6714564999999997,8.1643185,-17.9603082,-0.4998073,4.880345,9.900997300000002,10.3647405,11.806794,8.0417085,1.9555946
96,62,Sm,8.1773075,2.0186123,157.929949262,12.03375,19.6276613,-2.0971626000000003,5.4381205,-16.0467035,-3.8640329,6.6455135,10.2437042,5.1553029,9.625805399999999,6.5522118,2.6783493
95,63,Eu,8.185132,3.4195081000000003,157.927782192,13.3302533,17.6815561,-1.4287750000000001,2.200422,-12.2623165,-4.5178838,5.8826452,7.8817788,-1.0830649,12.8010809,7.7847994,5.3159465
94,64,Gd,8.2018229,-1.2190862,157.9241112,14.2972724,15.9071764,-0.6593217,-0.28281760000000006,-11.301287,-7.9974392,7.9373919,8.5198063,-5.3861542,10.1036817,5.9924226,5.1476383
93,65,Tb,8.1891556,0.9362686,157.925419942,15.5225092,13.9659813,-0.1574324,-3.2834868999999998,-7.3007200999999995,-8.1175322,6.7783531,5.9359587000000005,-10.7676832,13.7752569,7.46347,7.9938558
92,66,Dy,8.1901298,-4.219755500000001,157.924414817,16.0204016,12.4497608,0.8742903,-5.1033366,-6.8722273,-11.6456076,9.053800800000001,6.9322747,-14.3975314,10.394665400000001,5.7073426000000005,7.3095484
91,67,Ho,8.158470900000001,-0.8835812,157.92894491,16.7916297,10.674328299999999,1.5443943,-7.4841963,-2.7125192,-10.8450667,7.4258521,4.0516983,-18.975196,15.052797,7.8325981,10.709445100000002
90,68,Er,8.147927,-6.6006151,157.929893474,17.2347687,9.352371,2.6652835,-9.2941948,-3.1681171,-14.6658545,9.9614856,5.759924,-23.2014158,10.9453946,5.6000387,9.4985262
89,69,Tm,8.1011994,-2.6935796,157.936979525,18.0114193,7.7427394000000005,3.5112624,-11.4909997,0.8406912,-13.354606100000002,8.065239400000001,2.5785234,-27.585,16.2192896,8.3700271,12.983000899999999
88,70,Yb,8.079199899999999,-8.7974201,157.939871202,18.886719000000003,6.3758799,4.1704374,-13.907221100000001,0.11505620000000001,-17.6411207,10.6610265,4.5893128,-32.317,11.535603499999999,5.480355800000001,11.8459537
87,71,Lu,8.0185685,-5.109801000000001,157.94931562,19.6552869,4.9557256,4.790026,-16.094,4.2081073,-16.429000000000002,8.8437006,1.0812594,,16.7641442,8.1544687,15.060122900000001
86,72,Hf,7.9812764,-10.984,157.954801217,20.4255211,3.414804,5.404777500000001,-18.41,4.0285416000000005,-20.5777699,11.319,2.9515527,,12.3079572,5.3067118,14.046616700000001
85,73,Ta,7.907,-7.426,157.966593,21.26,1.997,6.1236044000000005,,8.033,-19.5,9.594,-0.44765410000000005,,17.412,8.056000000000001,17.073
84,74,W,7.855,,157.974565,,0.451,6.612454700000001,,7.873,,12.074,1.3860000000000001,,13.019,5.159454800000001,16.264
100,59,Pr,8.037,8.954,158.956232,8.477,26.278000000000002,-5.264,15.785,,4.994,4.691,11.519,25.274,9.872,8.914,-2.073
99,60,Nd,8.0888224,6.8303441000000005,158.946619085,9.372526599999999,24.372,-4.369,12.483842300000001,-20.473,1.3108177,3.9602019,12.863,18.8378503,9.4216057,6.589354999999999,0.742
98,61,Pm,8.1268601,5.6534982000000005,158.939286409,10.3998714,22.697487600000002,-3.5639317999999998,9.4890345,-19.693,0.6261798000000001,5.5195264,10.0081989,12.978230400000001,10.6505724,8.5118339,0.541358
97,62,Sm,8.1574963,3.8355363000000002,158.93321713,11.6728319,20.291674900000004,-2.3489690999999997,6.354008,-15.6616972,-3.0087061,5.0273184,10.390677600000002,6.9593709,10.8000736,6.8230532,3.6406826000000003
96,63,Eu,8.1766987,2.5184717,158.929099512,12.7268876,18.324211899999998,-1.5282959,3.4891959000000003,-14.226213900000001,-3.4247342,6.844242400000001,8.0805077,1.2862346,11.3450749,8.1814047,3.7698639
95,64,Gd,8.1876177,0.9707242,158.926395822,13.8805978,16.4621459,-0.7955676,0.6053628999999999,-10.598979400000001,-7.1622921,5.9432059,8.5803671,-4.0007371,11.6080839,6.385042,6.4452799999999995
94,65,Tb,8.1888025,-0.36536130000000006,158.925353707,14.9113694,14.651389499999999,-0.13916050000000002,-2.2029613,-9.5510913,-7.1967477,8.1330163,6.131583200000001,-8.9621775,12.0021211,7.866806800000001,6.1966648
93,66,Dy,8.1815842,-1.8376,158.925745938,15.8851872,12.9212667,0.478162,-4.6061000000000005,-5.7662218,-11.051141900000001,6.8313864,6.985308,-13.333703100000001,12.307435100000001,5.7878452,9.0145152
92,67,Ho,8.1651066,-2.7685,158.927718683,16.639394,11.143714099999999,1.4959032,-6.7592162,-5.147708,-10.097123,9.213541900000001,4.211439400000001,-17.6210112,12.805856,8.0638214,8.4077922