N,Z,element,be_per_a,beta_decay_energy,atomic_mass,s2n,s2p,qa,q2b,qep,qbn,s1n,s1p,q4b,qda,qpa,qna
88,60,Nd,8.277177,-0.54228,147.916899093,12.62476,16.35055,0.59896,1.92827,-12.68308,-6.43705,7.332560000000001,9.2529,-1.13867,9.98382,7.082,5.30543
87,61,Pm,8.268226,2.470548,147.917481255,13.55404,14.76265,1.4598900000000001,-0.56638,-8.71062,-5.670680000000001,5.89477,6.00794,-6.32863,14.770959999999999,9.430290000000001,8.40663
86,62,Sm,8.279633,-3.036933,147.914829012,14.48259,12.98834,1.98678,-3.06694,-8.47849,-9.86283,8.14123,7.58297,-11.476709999999999,10.828850000000001,6.795260000000001,7.74209
85,63,Eu,8.253827,-0.030003000000000002,147.918089294,15.32442,11.42296,2.69185,-5.76225,-4.54604,-9.0137,6.82589,4.32195,-18.308169999999997,15.40778,9.216040000000001,10.614540000000002
84,64,Gd,8.248338,-5.732246,147.918121503,16.32618,9.850959999999999,3.27129,-8.409780000000001,-4.29195,-13.59798,8.9837,6.01354,-24.79034,11.55902,6.58623,10.02839
83,65,Tb,8.204321,-2.6775320000000002,147.924275323,18.91611,7.9974799999999995,2.65714,-12.54592,-0.2813,-14.412360000000001,7.86573,2.46911,-31.77205,16.25951,7.25329,13.10083
82,66,Dy,8.180943000000001,-9.868393000000001,147.927149772,21.44727,6.35171,1.47504,-16.38056,0.20842,-20.17378,11.73483,4.40586,-37.529,10.614870000000002,3.39292,10.71317
81,67,Ho,8.108979,-6.512169,147.937743928,22.89557,4.80549,1.95211,-19.22613,5.46254,-19.45467,10.30538,1.08409,,15.27457,5.1155,14.04365
80,68,Er,8.059692,-12.713962,147.944735029,23.29961,3.5020100000000003,2.6661799999999998,-21.149,5.4280800000000005,-23.57591,12.9425,3.01087,,10.470040000000001,2.50517,12.41001
79,69,Tm,7.968500000000001,-8.435,147.958384029,23.852,2.10475,3.41957,,9.70309,,10.86194,-0.5538099999999999,,16.26779,5.339,16.00148
78,70,Yb,7.906000000000001,,147.967439,,0.586,3.852,,8.988,,,1.645,,11.436,2.116,14.556000000000001
94,55,Cs,8.073,9.870000000000001,148.953569,7.473,,-4.736,16.97,,6.272,4.4110000000000005,11.939,27.789,9.82,9.569,
93,56,Ba,8.133793,7.0996049999999995,148.942973,8.99891,25.339000000000002,-4.0519,13.5496,-21.809,1.51711,3.59789,13.49834,21.25516,9.51056,7.05412,0.48104
92,57,La,8.176191,6.45,148.93535126,9.68416,22.87779,-2.59041,10.819450000000002,-20.597939999999998,2.10718,5.5825000000000005,9.91515,15.84434,10.75492,9.59123,0.7368600000000001
91,58,Ce,8.214229,4.369452,148.9284269,10.79866,20.98383,-1.57865,7.705550000000001,-16.36515,-2.20581,4.34282,11.25015,10.46582,10.719280000000001,7.24442,3.9235700000000002
90,59,Pr,8.238303,3.3361,148.9237361,11.73793,18.93892,-0.6289600000000001,5.02489,-15.6196,-1.70269,6.57526,7.929930000000001,5.40175,11.68533,9.46008,3.6573200000000003
89,60,Nd,8.255441999999999,1.68879,148.920154648,12.371350000000001,16.93952,0.26664,2.7602700000000002,-11.26603,-5.5810699999999995,5.03879,9.129010000000001,0.7515499999999999,11.77941,7.16959,6.90633
88,61,Pm,8.261526,1.0714810000000001,148.918341658,13.164629999999999,15.198129999999999,1.13677,0.37686000000000003,-10.8178,-4.79931,7.2698599999999995,5.94523,-4.57559,12.7933,9.725670000000001,6.2631499999999996
87,62,Sm,8.263466000000001,-0.694625,148.917191375,14.012020000000001,13.566930000000001,1.8713,-2.00873,-7.01671,-8.90772,5.87079,7.55899,-9.43983,12.61733,7.1826300000000005,9.436530000000001
86,63,Eu,8.253554,-1.3141010000000002,148.917937086,15.03899,11.976790000000001,2.40145,-4.952439999999999,-6.86437,-8.2431,8.2131,4.39382,-14.794530000000002,13.53605,9.41925,8.659600000000001
85,64,Gd,8.239484000000001,-3.638343,148.919347831,15.912700000000001,10.438600000000001,3.09939,-7.431100000000001,-3.07972,-12.66125,6.929,6.11665,-21.3854,13.128549999999999,6.85458,11.5157
84,65,Tb,8.209815,-3.7927600000000004,148.923253753,16.88864,8.52185,4.07792,-9.84209,-2.47831,-11.70044,9.0229,2.50831,-27.606,14.57908,9.461170000000001,11.27527
83,66,Dy,8.179109,-6.04933,148.927325448,19.642509999999998,6.91691,2.8055,-13.95429,1.28445,-17.77607,7.90768,4.4478,-34.497,13.75756,4.931760000000001,14.036280000000001
82,67,Ho,8.133259,-7.9049629999999995,148.933819672,22.03212,5.4818500000000006,2.31692,-17.764,1.60153,-18.23891,11.72674,1.076,,13.26027,5.772390000000001,11.763430000000001
81,68,Er,8.074955,-9.859,148.942306,23.27644,4.123520000000001,2.07607,-20.543,6.82896,-23.04791,10.33394,3.03943,,12.726280000000001,2.3606599999999998,14.459700000000002
80,69,Tm,8.004,-10.684000000000001,148.95289,24.051000000000002,2.704,2.813,,6.82,-21.624,13.189,-0.307,,13.436,5.303,13.002
79,70,Yb,7.9270000000000005,,148.96436,,1.169,3.617,,10.992,,10.939,1.722,,13.487,2.721,16.77
95,55,Cs,8.039,11.73,149.959023,7.402,,,17.96,,6.8790000000000004,2.991,,30.131,11.141,9.054,
94,56,Ba,8.112,6.23,149.94643,8.449,25.878,-4.37,14.947000000000001,,2.248,4.851,13.939,23.78,7.722,6.884,-1.8940000000000001
93,57,La,8.148225,8.716888,149.939742,9.56386,23.79696,-3.2445100000000004,12.17051,-20.169,2.46863,3.98137,10.29863,17.46717,12.17458,8.99812,1.4365
92,58,Ce,8.201122,3.453625,149.930384035,10.59108,21.83106,-2.32468,8.8329,-19.015520000000002,-1.87881,6.24826,11.91591,12.20428,8.572690000000001,6.69559,1.06358
91,59,Pr,8.218931000000001,5.379276,149.926676415,11.90769,20.16968,-1.6751099999999999,5.29666,-15.36954,-1.99633,5.3324300000000004,8.919540000000001,6.491750000000001,12.80873,8.57747,4.02431
90,60,Nd,8.249576999999999,-0.082616,149.920901525,12.41439,17.85929,-0.46928,3.3713800000000003,-14.29881,-5.68682,7.37561,9.92936,2.08418,9.56648,6.62837,3.98054
89,61,Pm,8.24381,3.454,149.920990217,12.87406,15.639660000000001,0.65895,1.1950999999999998,-9.84674,-4.53272,5.6042,6.51064,-2.49142,14.52166,9.41366,7.49333
88,62,Sm,8.261621,-2.2589050000000004,149.917282195,13.857510000000001,14.22108,1.44981,-1.2872000000000001,-9.96464,-8.68134,7.98672,8.27585,-7.7415400000000005,10.52538,6.855180000000001,6.7420100000000005
87,63,Eu,8.241346,0.9717000000000001,149.919707229,14.63554,12.50446,2.23716,-3.68651,-6.01695,-7.73654,6.42244,4.94547,-12.846350000000001,15.25484,9.33817,9.89643
86,64,Gd,8.242609,-4.658213,149.918664066,15.63724,11.00561,2.8074600000000003,-6.45433,-5.9171700000000005,-12.34658,8.70824,6.61179,-17.93262,11.246200000000002,6.644880000000001,9.14882
85,65,Tb,8.206338,-1.7961220000000002,149.923664864,16.711270000000003,9.38433,3.5869,-9.15984,-1.9535799999999999,-11.48113,7.68837,3.26768,-24.615000000000002,15.874410000000001,9.11528,12.08544
84,66,Dy,8.189149,-7.363719000000001,149.92559308,17.59268,7.61821,4.35127,-11.478290000000001,-1.47156,-15.734340000000001,9.68501,5.1099,-30.671,11.93829,6.29712,11.69375
83,67,Ho,8.134841999999999,-4.114568,149.933498358,20.097360000000002,5.98674,3.39281,-15.455,2.25382,-16.27558,8.37062,1.5389400000000002,-37.306,16.62448,7.11421,14.443190000000001
82,68,Er,8.102195,-11.34,149.937915528,22.49496,4.5497,2.29869,-19.193,2.5756300000000003,-22.02,12.161010000000001,3.4737,,10.87065,2.78983,12.01113
81,69,Tm,8.021,-7.852,149.95009,23.868000000000002,3.078,2.322,-21.851,7.867,-21.364,10.68,0.038,,15.699,4.981,14.913
80,70,Yb,7.964,-13.998000000000001,149.95852,24.451,1.737,3.259,,7.814,,13.511000000000001,2.045,,10.837,2.2,13.616
79,71,Lu,7.865,,149.973548,,0.453,3.991,,11.954,,,-1.2695999999999998,,16.401,,16.981
96,55,Cs,8.013,10.71,150.963253,7.122,,,19.081,,7.599,4.131,,32.55,,9.235,
95,56,Ba,8.079,8.370000000000001,150.951755,7.962,,-5.005,16.285,,3.119,3.111,14.059000000000001,26.003,9.021,6.835,-0.6930000000000001
94,57,La,8.129043,7.914718,150.942769,9.233049999999999,24.638,-3.81518,13.469299999999999,-22.429000000000002,3.4652,5.25168,10.699,20.07573,10.52078,9.147459999999999,-0.75299
93,58,Ce,8.176277,5.554578,150.9342722,10.69777,22.68268,-3.38594,9.71794,-18.614,-0.99589,4.44951,12.38406,13.35123,9.70567,6.34774,2.01509
92,59,Pr,8.207881,4.163358000000001,150.928309114,11.8829,21.13766,-2.52616,6.6064300000000005,-17.93863,-1.1711900000000002,6.550470000000001,9.22175,7.873220000000001,10.601090000000001,8.48283,1.57551
91,60,Nd,8.230272000000001,2.443075,150.923839565,12.71016,18.851020000000002,-1.35401,3.63329,-13.385100000000001,-5.4171700000000005,5.33455,9.93148,3.24575,10.80718,6.45649,5.10182
90,61,Pm,8.24127,1.190217,150.921216817,13.464440000000002,16.92464,-0.36691,1.26679,-12.37455,-4.4062399999999995,7.86024,6.99528,-1.76256,11.70021,8.88599,4.7957600000000005
89,62,Sm,8.243971,0.076574,150.919939066,13.58318,14.77875,1.14555,-0.38754000000000005,-8.1855,-7.85536,5.59646,8.26811,-5.82387,12.198780000000001,7.15349,8.47812
88,63,Eu,8.239297,-0.464116,150.91985686,14.354379999999999,13.166540000000001,1.96449,-3.02935,-8.34469,-6.96024,7.93194,4.890689999999999,-11.03012,13.19369,9.547469999999999,7.859260000000001
87,64,Gd,8.231043,-2.565233,150.920355109,15.204360000000001,11.63094,2.6527,-5.43633,-4.42657,-11.15433,6.49612,6.6854700000000005,-15.922450000000001,12.963180000000001,6.97465,10.793930000000001
86,65,Tb,8.208873,-2.871099,150.923109001,16.27747,9.76033,3.49634,-8.000770000000001,-4.12024,-10.38522,8.5891,3.14854,-20.85075,14.21431,9.509879999999999,10.32223
85,66,Dy,8.184678,-5.129667,150.926191253,17.19913,8.20334,4.17962,-10.486120000000001,-0.27744,-14.87784,7.51412,4.93565,-27.210060000000002,13.44707,6.64873,13.16332
84,67,Ho,8.145526,-5.356454,150.931698177,18.11879,6.71201,4.69501,-12.84998,0.19401,-13.86274,9.74817,1.60211,-33.514,14.78398,9.10087,12.56075
83,68,Er,8.104872,-7.493528,150.937448567,20.6673,5.14832,3.50484,-16.72394,3.75435,-19.847,8.506290000000002,3.6093699999999997,,14.0911,4.58893,15.23967
82,69,Tm,8.050064,-9.230414000000001,150.945493201,23.033,3.70412,2.5594200000000003,-20.664,3.88415,-20.206,12.353,0.23041,,13.67967,5.57029,12.864799999999999
81,70,Yb,7.983755,-11.434000000000001,150.955402458,24.487000000000002,2.37867,2.64055,,9.0,-24.974,10.975,2.34,,13.051,2.08674,15.58305
80,71,Lu,7.9030000000000005,,150.967677,,0.804,3.4410000000000003,,9.093,,13.540000000000001,-1.2409700000000001,,13.801,5.086,14.303
97,55,Cs,7.979,12.780000000000001,151.968942,6.9030000000000005,,,20.36,,7.938,2.7720000000000002,,34.828,,,
96,56,Ba,8.057,7.58,151.955222,7.953,,-5.535,17.27,,3.529,4.8420000000000005,14.77,28.439,7.17,6.404,
95,57,La,8.102,9.69,151.947085,9.303,25.698,-4.804,14.468,-22.349,3.864,4.051,11.639000000000001,21.964000000000002,11.321,8.694,-0.393
94,58,Ce,8.161,4.7780000000000005,151.936682,10.276,23.658,-3.8120000000000003,11.169,-21.329,-0.272,5.827,12.959,15.782,7.86,6.104,-0.214
93,59,Pr,8.187104,6.391344,151.9315529,11.60022,22.20604,-3.47424,7.49612,-17.736700000000003,-0.88639,5.04975,9.82198,9.13019,11.7996,7.77591,2.10825
92,60,Nd,8.224005,1.104778,151.924691509,12.612290000000002,19.88049,-2.17592,4.6132,-16.21333,-4.8346599999999995,7.27774,10.65875,4.557510000000001,8.86188,5.75401,2.16691
91,61,Pm,8.226127,3.508417,151.923505481,13.79968,17.531650000000003,-1.14368,1.63407,-11.763530000000001,-4.74922,5.939439999999999,7.60017,-0.53727,13.136379999999999,7.98534,5.43158
90,62,Sm,8.244061,-1.874348,151.91973904,13.8541,15.66079,0.22047999999999998,-0.055689999999999996,-11.10859,-8.18107,8.25764,8.665510000000001,-4.64473,9.54534,6.16571,5.25926
89,63,Eu,8.226583000000002,1.818661,151.921751235,14.23866,13.86906,1.55255,-2.1713400000000003,-6.79116,-6.77083,6.30672,5.60095,-9.283479999999999,14.873690000000002,9.111540000000002,8.8224
88,64,Gd,8.233401,-3.99,151.919798822,15.08562,12.23372,2.20443,-4.58904,-7.41961,-11.154729999999999,8.589500000000001,7.34303,-14.20654,10.79612,6.59825,8.07522
87,65,Tb,8.202004,-0.599044,151.924082263,15.75383,10.50262,3.1575,-7.11215,-3.3530300000000004,-10.03583,7.16473,3.8171500000000003,-18.99664,15.75782,9.27415,11.370600000000001
86,66,Dy,8.192916,-6.513102,151.924725363,16.95091,8.93188,3.72654,-9.6175,-3.2181100000000002,-14.566450000000001,9.43678,5.78334,-23.84749,11.69865,6.234850000000001,10.65554
85,67,Ho,8.144919,-3.1043939999999997,151.931717465,17.80152,7.07699,4.5074,-11.884500000000001,0.72976,-13.409799999999999,8.05335,2.14134,-30.183,16.41563,8.95519,13.5303
84,68,Er,8.119349,-8.780104,151.935050169,18.811700000000002,5.76872,4.93426,-14.23,0.9630599999999999,-17.798939999999998,10.30541,4.1666099999999995,,12.15631,6.010260000000001,12.841930000000001
83,69,Tm,8.056438,-5.449892,151.944476,21.372,4.35233,3.84597,-18.298000000000002,4.61349,-18.24925,9.01883,0.7429600000000001,,16.821849999999998,6.8854,15.572709999999999
82,70,Yb,8.015436,-12.848,151.9503267,23.775000000000002,3.0170100000000004,2.78369,,4.706930000000001,-24.233,12.79936,2.7866,,10.931000000000001,2.476,13.11764
81,71,Lu,7.926,,151.96412,24.925,1.5090000000000001,2.918,,10.062,,11.385,-0.8310000000000001,,15.927,4.64,16.107
97,56,Ba,8.023,9.59,152.960848,7.673,,,18.44,,4.749,2.831,14.828000000000001,30.86,8.471,6.564,
96,57,La,8.081,8.85,152.950553,8.892,26.408,-5.234,15.509,-24.418,4.849,4.841,11.638,24.588,9.591000000000001,8.705,-2.243
95,58,Ce,8.134,6.659,152.941052,9.827,24.548000000000002,-4.214,12.421,-20.488,0.777,4.001,12.909,17.650000000000002,9.111,6.0840000000000005,0.637
94,59,Pr,8.172036,5.761834,152.933903532,10.93147,22.83607,-3.7734699999999997,9.079360000000001,-19.567,0.50963,5.8817200000000005,9.877,11.79876,10.36739,8.14245,0.2079
93,60,Nd,8.204582,3.317527,152.927717949,12.529940000000002,20.68319,-3.0853,5.22939,-15.639000000000001,-4.14743,5.25221,10.8612,5.55225,10.16014,5.83424,3.16296
92,61,Pm,8.221152,1.9118620000000002,152.924156436,13.4044,18.44614,-2.03337,2.7194000000000003,-14.17873,-3.95654,7.4649600000000005,7.78739,0.66551,11.00597,7.89599,3.29906
91,62,Sm,8.228534,0.8075359999999999,152.922103969,14.126040000000001,16.19464,-0.60914,0.32287,-9.699250000000001,-7.74275,5.868399999999999,8.59447,-3.41674,11.537180000000001,5.90151,6.76647
90,63,Eu,8.228699,-0.484671,152.921237043,14.857000000000001,14.5591,0.27212000000000003,-2.0538800000000004,-9.40201,-6.73162,8.55028,5.8935900000000006,-8.355120000000001,11.919860000000002,8.54797,5.87632
89,64,Gd,8.220418,-1.569213,152.921757359,14.836450000000001,12.88421,1.82827,-3.7396100000000003,-5.40892,-10.23695,6.24695,7.283270000000001,-12.413950000000002,12.481110000000001,6.77374,9.81499
88,65,Tb,8.205048000000001,-2.170394,152.923441978,15.832469999999999,11.238430000000001,2.7028600000000003,-6.301229999999999,-5.71405,-9.26678,8.66774,3.89539,-17.34001,13.58621,9.31465,9.1253
87,66,Dy,8.185749,-4.13084,152.925771992,16.53317,9.53215,3.5591500000000003,-8.67434,-1.725,-13.60949,7.09639,5.715,-21.935,13.191370000000001,6.82683,12.267389999999999
86,67,Ho,8.153637,-4.543499,152.930206632,17.532,7.96654,4.05165,-11.038770000000001,-1.58416,-12.58304,9.47865,2.1832,-26.63926,14.451110000000002,9.16155,11.740020000000001
85,68,Er,8.118827,-6.495276,152.935084279,18.34495,6.2941400000000005,4.802390000000001,-13.26,2.3603,-16.819650000000003,8.03954,4.1528,-33.168,13.86494,6.34133,14.4874
84,69,Tm,8.071261,-6.765000000000001,152.942057244,19.34321,4.928529999999999,5.24833,-15.60048,2.34247,-15.774270000000001,10.324370000000002,0.7619199999999999,,15.00376,8.722040000000002,13.618950000000002
83,70,Yb,8.022,-8.835,152.94932,21.808,3.52,4.109,-19.908,6.003,-21.857,9.009,2.777,,14.275,4.147,16.27
82,71,Lu,7.95907,-11.073,152.958805054,24.407,2.17803,3.085,,6.05846,,13.022,-0.60857,,13.8803,5.13,13.764000000000001
81,72,Hf,7.882000000000001,,152.970692,,0.336,3.473,,11.681000000000001,,,1.167,,13.519,2.204,16.985
98,56,Ba,8.0,8.709,153.964766,7.252,,,19.399,,5.168,4.422,,33.005,6.821,6.273,
97,57,La,8.051,10.69,153.955416,8.382,27.177,-5.785,16.575,,5.309,3.541,12.349,26.982,10.892,8.274000000000001,-1.6540000000000001
96,58,Ce,8.116,5.885,153.94394,9.382,25.087,-4.744,13.605,-23.039,1.278,5.381,13.449,20.236,7.781000000000001,5.955,-1.633
95,59,Pr,8.148892,7.72,153.937621738,10.48955,23.393,-4.39993,10.407,-19.334,1.154,4.60783,10.484,13.63314,11.586,7.98413,0.85176
94,60,Nd,8.193942,2.6870000000000003,153.929333977,11.818200000000001,21.423000000000002,-3.40304,6.6302,-18.204,-3.2484699999999997,6.566,11.54548,7.88098,8.643889999999999,5.81871,1.04648
93,61,Pm,8.20631,3.9432,153.926449364,13.40042,19.33185,-2.6364099999999997,3.22614,-14.23248,-4.023610000000001,5.9354700000000005,8.47065,1.64433,12.34824,7.29507,3.91406
92,62,Sm,8.226835,-0.717056,153.922216164,13.83521,16.88371,-1.20034,1.25078,-12.41385,-7.15927,7.966810000000001,9.09632,-2.06127,9.50982,5.7949399999999995,4.13421
91,63,Eu,8.217098,1.967834,153.922985955,14.9925,15.06188,-0.5659,-1.58182,-8.37927,-6.92689,6.442220000000001,6.46741,-7.09881,13.73529,7.70221,7.29434
90,64,Gd,8.224796000000001,-3.549651,153.920873398,15.14167,13.52129,0.92027,-3.31205,-8.43524,-10.463930000000001,8.89472,7.6277,-11.10093,9.89311,5.81095,6.51673
89,65,Tb,8.196665999999999,0.237604,153.924684106,15.58202,11.84599,2.21102,-5.51699,-4.07805,-9.08468,6.91428,4.5627200000000006,-15.72917,15.261420000000001,8.89649,10.14295
88,66,Dy,8.193129,-5.754595999999999,153.924429028,16.41867,10.26493,2.94511,-7.78889,-4.80033,-13.453120000000002,9.322280000000001,6.36954,-20.46182,11.03382,6.093649999999999,9.44123
87,67,Ho,8.150681,-2.034291,153.930606841,17.17717,8.50034,4.04149,-10.21218,-0.61494,-12.24202,7.69853,2.78534,-24.924,16.18937,8.97715,12.63059
86,68,Er,8.132392,-8.177888,153.932790743,18.24728,7.0650900000000005,4.27966,-12.67294,-0.75105,-16.70301,10.20773,4.88189,-29.935000000000002,11.71056,5.88177,11.793790000000001
85,69,Tm,8.074208,-4.495048,153.941570067,18.849490000000003,5.4003000000000005,5.09383,-14.712,3.2960000000000003,-15.290000000000001,8.525120000000001,1.2475,,16.78405,8.703209999999999,14.84201
84,70,Yb,8.039939,-10.217,153.946395701,19.80434,4.009650000000001,5.474310000000001,-17.262,3.2475500000000004,-19.630560000000003,10.795,3.2477199999999997,,12.499,5.70473,13.9806
83,71,Lu,7.969,-7.045,153.957364,22.436,2.573,4.351,,6.969,-20.486,9.414,-0.20406000000000002,,17.266000000000002,6.691,16.704
82,72,Hf,7.918,,153.964927,,0.978,3.543,,7.2490000000000006,,13.441,1.586,,11.463000000000001,2.302,14.518
98,57,La,8.028,9.85,154.95928,8.013,,-6.126,17.485,,6.218,4.472,12.399000000000001,29.009,9.25,8.644,-3.354
97,58,Ce,8.087,7.635,154.948706,9.013,25.888,-5.265,14.504,-22.249,2.254,3.632,13.539,22.411,8.99,6.3740000000000006,-0.423
96,59,Pr,8.131039,6.868456,154.940509259,9.98944,23.934,-4.529850000000001,11.52466,-21.175,2.33839,5.38161,10.485,16.40282,10.205,8.429,-0.47900000000000004
95,60,Nd,8.170304,4.656207,154.933135668,11.09606,21.952,-3.4835900000000004,7.907100000000001,-17.353,-1.84306,4.530060000000001,11.46772,9.78616,9.99555,6.33839,2.343
94,61,Pm,8.195296,3.2508879999999998,154.928137024,12.43474,19.94941,-2.58522,4.87816,-16.12393,-2.55607,6.499270000000001,8.40393,4.31012,11.10117,8.07353,2.4645300000000003
93,62,Sm,8.211223,1.627273,154.924647051,13.77377,17.43846,-1.67275,1.87906,-11.65481,-6.52402,5.80696,8.96781,-1.03527,11.16781,5.927420000000001,5.60499
92,63,Eu,8.216674000000001,0.251788,154.922900102,14.5935,15.74821,-0.85694,-0.56804,-10.59509,-6.18345,8.15129,6.651890000000001,-5.77855,11.452399999999999,7.80857,5.0825000000000005
91,64,Gd,8.213251,-0.8198300000000001,154.922629796,15.32996,14.08814,0.08148000000000001,-2.91433,-6.90367,-9.98489,6.43524,7.62073,-9.86069,12.00815,5.68243,8.339120000000001
90,65,Tb,8.202914000000002,-2.0945,154.923509921,16.07935,12.46077,0.97789,-5.21051,-6.8008999999999995,-8.92746,9.16506,4.83307,-14.62414,12.343309999999999,8.320920000000001,7.28461
89,66,Dy,8.184354,-3.116011,154.925758459,16.15524,10.850940000000001,2.60827,-6.946359999999999,-2.73857,-12.58756,6.83296,6.288220000000001,-18.652939999999997,12.868590000000001,6.42542,11.19777
88,67,Ho,8.159203,-3.83035,154.929103634,17.17007,9.30414,3.15905,-9.41363,-3.17221,-11.505840000000001,9.471540000000001,2.9346,-23.494490000000003,13.81421,8.94239,10.323780000000001
87,68,Er,8.129444000000001,-5.583276,154.933215684,17.88322,7.64419,4.1183000000000005,-11.70658,0.89575,-15.85338,7.67549,4.85885,-28.039,13.51372,6.25964,13.55509