N,Z,element,be_per_a,beta_decay_energy,atomic_mass,s2n,s2p,qa,q2b,qep,qbn,s1n,s1p,q4b,qda,qpa,qna
91,68,Er,8.1427742,-3.9907162,158.93069079,17.2901086,9.7143932,2.1699032000000003,-8.7276031,-1.4429394,-13.9292382,7.328622999999999,5.662694900000001,-21.708514200000003,12.9825492,5.841337800000001,11.614668400000001
90,69,Tm,8.1127549,-4.736886900000001,158.934975,18.003761299999997,8.3154838,3.0444789,-10.861795,-1.6719787,-12.6321016,9.938522,2.5555598,-26.1312472,13.5540508,8.5053339,10.614401
89,70,Yb,8.0780428,-6.1249081,158.940060257,18.5562411,6.9978115,3.9507391,-12.9809111,2.1813271,-16.6926347,7.8952146,4.419288,-30.400000000000002,13.5865687,5.8649551,14.024567800000002
88,71,Lu,8.034600900000001,-6.856002999999999,158.946635615,19.4114273,5.5772723,4.4923962,-15.2694522,1.70562,-15.6775276,10.5677267,0.9879596,-34.904,14.4221101,8.4209838,12.7722102
87,72,Hf,7.986561,-8.413449199999999,158.953995837,20.14,4.0106361,5.225092,-17.419,5.8680433999999995,-19.806,8.8215247,2.9293766999999997,,14.2980188,5.7109988000000005,16.0593338
86,73,Ta,7.9287258000000005,-9.005,158.963028046,20.9858454,2.5772812,5.680983400000001,-19.634,5.4840725,-18.818,11.392,-0.37427150000000003,,15.126,8.244412800000001,14.906795
85,74,W,7.867,-10.629,158.972696,21.887,1.157,6.4508877,,9.38,,9.813,1.605,,14.873000000000001,5.431090500000001,18.032
84,75,Re,7.795,,158.984106,,-0.213,6.758,,9.024000000000001,,,-1.599,,15.596,,16.843
101,59,Pr,8.009,10.525,159.961138,8.192,,-5.574,16.695,,5.453,3.501,12.149000000000001,27.294,11.051,8.595,-1.483
100,60,Nd,8.0699662,6.170123800000001,159.949839172,9.0320277,24.763,-4.33,13.5086575,-22.673000000000002,1.7585182,5.0718259,13.244,21.217544999999998,8.136000000000001,6.574345999999999,-1.1480000000000001
99,61,Pm,8.1036398,7.3385338,159.943215272,9.931132,23.323,-3.8702476000000003,10.59881,-19.414,1.2418926,4.4116056,10.4596027,14.9418349,11.6512916,8.463533100000001,1.1865691999999999
98,62,Sm,8.1446159,3.2602763,159.935337032,11.123959600000001,20.9759913,-2.4559585000000004,7.7088875,-17.7981364,-2.2611049,6.0966411,10.9677923,9.4392528,9.5837774,6.9279987,1.9073463
97,63,Eu,8.160103,4.4486112,159.931836982,12.3656235,18.965248,-1.7515172,4.3430249000000005,-14.2280686,-3.0029094,5.5213811,8.5745704,2.8889765,12.4692073,8.0482601,4.4500694
96,64,Gd,8.1830171,-0.1055863,159.927061202,13.3947265,17.268152999999998,-1.0062406,1.7303652999999999,-13.023181600000001,-6.4807964,7.4515206,9.1876453,-1.8778834,10.0392085,6.3811295,4.3819959
95,65,Tb,8.1774676,1.8359516000000002,159.927174553,14.5082264,15.1439544,-0.1785453,-1.4540484,-9.082059,-6.7405714,6.3752101,6.5635873,-7.5354367,13.564302900000001,7.851477200000001,7.2690627999999995
94,66,Dy,8.1840526,-3.29,159.925203578,15.4079095,13.5603979,0.4379921,-3.6082487999999997,-8.399539,-10.414123100000001,8.576523100000001,7.4288147,-11.509198399999999,10.5092651,5.9554783,6.7978726
93,67,Ho,8.158600400000001,-0.3182488,159.928735538,16.3376649,11.4894841,1.2836691,-6.0813882999999995,-4.1388147,-9.892623100000002,7.1241231,4.5041761,-16.112483,14.7355337,7.9062992,10.0278253
92,68,Er,8.1517217,-5.7631395,159.929077193,16.9029973,10.234966700000001,2.0402941,-7.9009496,-4.1859273,-13.5650905,9.5743743,6.0235273,-20.1254293,10.834027,5.6327411000000005,9.006894899999999
91,69,Tm,8.1108124,-2.1378101000000003,159.935264177,17.7404729,8.6915826,2.8124499999999997,-10.0310947,-0.26038780000000006,-12.5388379,7.801951,3.0288878,-24.4773373,15.7135854,7.976666000000001,12.1782276
90,70,Yb,8.0925614,-7.8932846,159.93755921,18.2962424,7.4373537,3.62354,-12.2244796,-0.8910777000000001,-16.5259359,10.4010278,4.8817939,-28.8341538,11.2507803,5.410107200000001,10.8968231
89,71,Lu,8.0383387,-4.3311951,159.946033,19.2003779,6.1446841999999995,4.1395589,-14.4462426,3.0114907,-15.4886543,8.6326513,1.7253962,-33.392,16.4504853,8.014025,14.0857388
88,72,Hf,8.0063791,-10.115047500000001,159.950682728,19.9789839,4.5070688,4.9018746,-16.6096742,2.6057988,-19.5709084,11.1574592,3.5191092,,11.9842603,5.3651259,13.1275671
87,73,Ta,7.9382704,-6.4946266999999995,159.961541678,20.848,3.1894414,5.4509341000000004,-18.945,6.5959383,-18.461000000000002,9.4558609,0.26006470000000004,,16.9895068,7.8950000000000005,16.262520300000002
86,74,W,7.8927893000000005,-12.451,159.968513946,21.779,1.8046157,6.0655256,,6.234562,-22.596,11.966000000000001,2.1788872,,12.5,5.1309298,15.172
85,75,Re,7.8100000000000005,,159.98188,,0.338,6.6977533000000005,,10.272,,10.145,-1.2666628,,17.525000000000002,7.676,18.364
101,60,Nd,8.042,7.856,160.954664,8.649000000000001,25.468,-4.7250000000000005,14.442,,2.593,3.577,13.319,23.276,9.25,6.784,-0.044
100,61,Pm,8.0859977,6.5854546,160.946229837,9.6748738,23.895,-4.0766990000000005,11.7050123,-21.176000000000002,2.0752655,5.2632683,10.6510451,17.3751887,10.348225200000002,8.6125896,-0.29
99,62,Sm,8.1220418,5.1195577000000005,160.939160062,10.606830200000001,21.5259785,-2.6028428,8.8340984,-17.2364996,-1.2499128000000002,4.5101891,11.0663758,11.3834507,10.593114700000001,7.2981546,2.809482
98,63,Eu,8.148981,3.7145406,160.933663991,11.8908516,19.8151921,-1.9194011,5.670176400000001,-16.1859335,-1.9208593,6.3694705,8.8473998,5.4046927,11.127055200000001,8.324303,2.9609439
97,64,Gd,8.1671934,1.9556357,160.929676267,13.0869206,17.8762346,-1.2534041,2.5493523000000002,-12.5619404,-5.740986299999999,5.6354,9.3016642,-0.3048433,11.2480509,6.6283747,5.392109400000001
96,65,Tb,8.174480899999999,0.5937166,160.927576806,14.0718321,15.996334000000001,-0.4275592,-0.2654837,-11.2572999,-5.8606704,7.6966220000000005,6.8086887,-5.5630629,11.8108868,8.0922471,5.4550860000000005
95,66,Dy,8.1733093,-0.8592003,160.926939425,15.03091,14.0715789,0.3434857,-2.8541956,-7.402405300000001,-9.7443869,6.4543869,7.5079916,-10.221245999999999,12.1878945,6.2794444,8.2808776
94,67,Ho,8.1631134,-1.9949954,160.927861815,16.0093097,12.2416544,1.1426386,-5.2975792,-6.6487913,-9.2034354,8.8851867,4.8128397000000005,-14.633944600000001,12.681733399999999,8.0749133,7.9209917
93,68,Er,8.1458628,-3.3025839,160.93000353,16.7828144,10.6120204,1.7984549,-7.3670504,-2.8178443000000004,-12.9715796,7.2084401,6.1078443,-18.885481199999997,12.839128800000001,5.8501532,10.852255600000001
92,69,Tm,8.1204906,-4.0644665,160.933549,17.470946700000002,9.1470365,2.5092319,-9.3363654,-2.8052604000000003,-11.806805899999999,9.6689957,3.1235092,-23.1201395,13.3732126,8.2691559,9.935084000000002
91,70,Yb,8.0903861,-5.2718989,160.937912384,18.1433671,7.85107,3.1544838,-11.5184308,0.9409573,-15.6356239,7.742339299999999,4.8221822,-27.327,13.4469629,5.7330072,13.115969400000001
90,71,Lu,8.0527821,-6.2465319,160.943572,18.9963763,6.5698873,3.7220137,-13.7837741,0.4497166,-14.6949201,10.363725,1.6880935,-31.7195292,13.981974899999999,8.3113265,11.787253100000001
89,72,Hf,8.0091245,-7.5372421,160.950277927,19.6058474,5.0602423,4.6791789,-15.809000000000001,4.5584385,-18.563435700000003,8.4483882,3.3348461000000005,-36.12,14.103598700000001,5.7604383,15.3402054
88,73,Ta,7.95745,-8.272,160.958369489,20.482054400000003,3.6479083,5.2363268,-17.9357552,4.202396,-17.5208202,11.0261935,0.128799,,14.784837900000001,8.1878795,14.0800275
87,74,W,7.901,-9.664,160.967249,21.216,2.232,5.9228816,-20.311,8.143,-21.7,9.249,1.972,,14.643,5.4752275,17.242
86,75,Re,7.836329200000001,-10.647,160.977624313,22.181,0.9816053000000001,6.3282117,,7.6919086,,12.036,-1.1972819,,15.302,7.714,15.922
85,76,Os,7.765000000000001,,160.989054,,-0.66,7.068857200000001,,11.844,,,0.607,,15.319,,19.143
102,60,Nd,8.022,7.03,161.958121,8.428,,-4.8950000000000005,15.369,,3.005,4.851,13.809000000000001,25.271,7.9,6.6240000000000006,-2.024
101,61,Pm,8.061,8.339,161.950574,9.288,24.418,-4.315,12.683,-20.839000000000002,2.561,4.025,11.099,19.84,11.395,8.548,0.376
100,62,Sm,8.1075745,4.3438905000000005,161.941621687,10.2885171,22.2324806,-2.968846,9.9016666,-19.438,-0.6587703,5.778328,11.5814356,13.8021161,9.2263923,7.0393529,0.9913559000000001
99,63,Eu,8.1295593,5.5577761,161.936958329,11.3721313,20.4062473,-2.0417169,7.1566039,-15.925326100000001,-1.2881201000000002,5.0026608,9.3398715,7.3176188,12.221035599999999,8.3489607,3.4778094999999998
98,64,Gd,8.1590373,1.5988278,161.930991812,12.481296200000001,18.6254897,-1.4537869,3.9004495,-14.8976476,-4.8902605,6.845896300000001,9.778089900000001,2.0534905,9.9235357,6.6267208,3.5735316
97,65,Tb,8.1640773,2.3016217,161.9292754,14.1857103,16.9640412,-1.0340023,0.16101490000000002,-11.3769177,-5.8953718,6.489088300000001,7.6623771,-4.4020656,12.7733191,7.5463647,5.81024
96,66,Dy,8.1734555,-2.1406068,161.92680450699999,14.6513804,14.8170517,0.0838841,-1.846959,-9.9639987,-9.0561937,8.1969934,8.008363000000001,-8.3600062,10.366111199999999,6.2154673,6.027090100000001
95,67,Ho,8.1554126,0.2936478,161.929102543,15.800773600000001,12.7820312,1.0054047000000002,-4.5630804,-5.8677562,-8.9105823,6.9155869,5.2740397,-13.2088036,14.342669599999999,7.9907127000000004,9.1384211
94,68,Er,8.1523959,-4.8567282,161.928787299,16.4126701,11.2397274,1.6480256,-6.5130472,-5.5676874,-12.5068139,9.2042301,6.4268877,-17.1657847,10.759021800000001,5.859465,8.479412
93,69,Tm,8.1175868,-1.656319,161.934001211,17.319081399999998,9.672999100000002,2.2849983000000003,-8.6457232,-1.5701595,-11.7145522,7.6500857,3.5651547999999997,-21.696077600000002,15.297501200000001,7.9476932,11.498540199999999
92,70,Yb,8.102533300000001,-6.9894042,161.935779342,17.8005726,8.334929,3.0577361,-10.652737499999999,-1.9088359000000001,-15.3301321,10.0582332,5.2114197,-25.8219466,11.190680700000001,5.6132959,10.386359200000001
91,71,Lu,8.0545596,-3.6633332999999997,161.943282776,18.704453,7.108664300000001,3.4465252,-13.0503545,1.7779845,-14.5872598,8.3407279,2.286482,-30.379,16.0422748,7.8658132,13.3850471
90,72,Hf,8.0271171,-9.3870211,161.947215526,19.3723147,5.5831409999999995,4.4162789,-15.1692091,1.3768513,-18.4611686,10.9239265,3.8950476,-34.669000000000004,11.812323500000002,5.404238500000001,12.3114936
89,73,Ta,7.9643432,-5.7821880000000005,161.957292907,20.1003411,4.0894045000000006,5.0058799,-17.329,5.4919735,-17.346,9.074147499999999,0.7545584000000001,,16.868149600000002,7.9352566,15.5736066
88,74,W,7.9238214,-11.546,161.963500341,20.8127798,2.6384116,5.6782669,-19.499,5.0276296,-21.2277147,11.564,2.5096125000000002,,12.535290100000001,5.3039954,14.4997916
87,75,Re,7.848,-7.953,161.975896,21.717,1.207,6.2403702,,9.037,-20.328,9.681000000000001,-0.7651427,,17.587,7.845,17.633
86,76,Os,7.7940000000000005,,161.984434,,-0.251,6.767783400000001,,8.718,,12.375,0.9460000000000001,,13.089,5.1690000000000005,16.580000000000002
102,61,Pm,8.042,7.640000000000001,162.953881,9.016,25.048000000000002,-4.615,13.614,,3.348,4.9910000000000005,11.239,21.636,9.981,8.629,-1.113
101,62,Sm,8.0841653,5.9742073,162.945679085,10.070204200000001,22.947,-3.3005203,10.788979300000001,-18.879,0.0520143,4.2918762,11.849,15.7812462,10.197784400000002,7.159082300000001,1.7713055
100,63,Eu,8.1160172,4.814772,162.93926551,10.924853800000001,21.0651721,-2.4443835,8.0219348,-17.823,-0.3644169,5.922193,9.483736500000001,9.804208000000001,10.8090316,8.523408799999999,1.967222
99,64,Gd,8.140756,3.2071628000000003,162.93409664,12.0250851,19.2944895,-1.6056573,4.9922669,-14.2985085,-3.5803611,5.179188900000001,9.954618,3.7788220000000003,11.1138174,6.9689131,4.4909838
98,65,Tb,8.1556322,1.7851041,162.930653609,13.2766122,17.382094600000002,-0.9772839,1.7822732000000001,-13.1617808,-4.485902200000001,6.7875239,7.604004700000001,-1.8673408999999999,11.6211952,8.2103614,4.544097300000001
97,66,Dy,8.161783999999999,-0.0028309000000000003,162.928737221,14.4679998,15.4526581,-0.2439163,-1.2134449999999999,-9.3891088,-8.4116131,6.2710063,7.790281,-7.086979500000001,11.791726800000001,6.3196711,7.2076043
96,67,Ho,8.156967,-1.2106141000000001,162.92874026,15.3243691,13.4941914,0.7296389000000001,-3.6496141,-7.7874501,-8.1151344,8.4087822,5.485828400000001,-11.5866122,12.388274299999999,8.1584536,7.104849000000001
95,68,Er,8.1447403,-2.439,162.930039908,16.1087504,11.6898608,1.5748916,-5.8735345,-4.2752144,-11.761248600000002,6.904520400000001,6.4158211000000005,-15.8980925,12.7396881,6.0790676999999995,10.1514147
94,69,Tm,8.1249774,-3.4345345000000003,162.932658282,16.9723343,10.110061100000001,2.1762916,-7.936998200000001,-3.9768211,-10.9785676,9.322248600000002,3.6831734000000003,-20.193779,13.1836927,8.1998189,9.3004147
93,70,Yb,8.0991069,-4.5024636000000005,162.936345406,17.6022663,8.6705219,2.8423261,-10.024558,-0.24863880000000002,-14.5334372,7.544033000000001,5.1053671000000005,-24.3854396,13.3156434,5.8712139,12.4167004
92,71,Lu,8.0666848,-5.5220944,162.941179,18.3717015,7.4706421,3.3540735,-12.256780800000001,-0.6029034000000001,-13.694307,10.0309736,2.2592224,-28.7891619,13.7536405,8.2358674,11.1560245
91,72,Hf,8.0280072,-6.734686399999999,162.947107211,19.096139100000002,6.0130143,4.139281,-14.3608817,3.2628719999999998,-17.5592337,8.1722126,3.7265322000000003,-32.933,14.003836,5.8646772,14.540308800000002
90,73,Ta,7.9818905,-7.626195200000001,162.954337194,19.8986948,4.5502267000000005,4.7490593,-16.5323811,3.0081542,-16.6067352,10.8245473,0.6551792000000001,-37.224000000000004,14.4919905,8.268168600000001,13.3817106
89,74,W,7.9303042999999995,-8.9061859,162.962524251,20.544,3.1705634000000003,5.5192516,-18.572,6.9710161,-20.527,8.980540000000001,2.416005,,14.580943600000001,5.7793163000000005,16.676710800000002
88,75,Re,7.8708655,-9.666,162.972085434,21.3020689,1.8016197,6.0119883000000005,-20.692,6.4901808,-19.574,11.621,-0.7079928,,15.216000000000001,8.1908755,15.4678491
87,76,Os,7.807,-11.026,162.982462,22.283,0.40700000000000003,6.6725656,,10.374,,9.908,1.173,,15.217,5.4059026999999995,18.639
103,61,Pm,8.014,9.565,163.958819,8.462,,-4.585,14.872,,4.168,3.472,11.569,23.745,11.361,8.734,-0.224
102,62,Sm,8.0677803,5.3068315,163.948550061,9.6888972,23.493000000000002,-3.6257154000000003,11.768373100000002,-21.135,0.5771862999999999,5.397021,12.255,18.0423343,8.826,7.0253296,-0.049
101,63,Eu,8.0953686,6.461541599999999,163.942852943,10.6518382,21.77,-2.7624232,8.8728374,-17.562,0.0851267,4.7296452,9.9215055,11.7483712,11.8577144,8.3039526,2.5008451000000003
100,64,Gd,8.1299978,2.4112959000000003,163.935916193,11.5556037,19.8925763,-1.885431,6.2739612,-16.3830471,-3.169252,6.3764148,10.408839799999999,6.2488855999999995,9.7400633,6.9619688,2.6247581
99,65,Tb,8.1399304,3.8626653,163.933327561,12.3680718,17.9599817,-1.0364506,2.8755338000000004,-12.820135700000002,-3.7954438,5.5805479,8.0053637,-0.1960405,12.886543600000001,8.2652136,5.3330199
98,66,Dy,8.158712900000001,-0.9871314999999999,163.929180819,13.9291154,16.264870900000002,-0.45050470000000004,-0.025075600000000003,-11.868029,-7.66094,7.6581091,8.660866200000001,-4.955478,10.6227061,6.3581840000000005,5.1848952
97,67,Ho,8.1479234,0.9620559,163.930240548,15.0825907,13.6789116,0.4310405,-3.0715743000000004,-7.6737347,-7.8844224999999994,6.6738085,5.888630600000001,-10.3381417,13.9114593,7.9390321,8.127662500000001
96,68,Er,8.1490191,-4.0336302,163.929207739,15.7509988,12.3393458,1.3049362000000002,-4.9304025000000005,-6.8506865,-11.2854785,8.8464785,6.853517399999999,-14.124217000000002,10.808796500000001,6.1177758,7.7593231
95,69,Tm,8.1196534,-0.8967722,163.933538019,16.5740968,10.4463224,2.0485664000000003,-7.2665674000000005,-2.8198872,-10.6863828,7.2518483,4.0305013,-18.626138,15.136074500000001,8.1564107,10.9337531
94,70,Yb,8.109414899999999,-6.3697951999999995,163.934500743,17.3336436,9.255902400000002,2.6270899,-9.1938146,-3.1337289999999998,-14.2920742,9.7896105,5.572729000000001,-22.7766157,11.1761186,5.7505991000000005,9.8355299
93,71,Lu,8.0658043,-2.8240194,163.941339,17.9532526,7.7428354,3.2337455,-11.3595706,0.7970661,-13.4443734,7.9222790000000005,2.6374684000000004,-27.1699343,15.8895947,8.0559277,12.9027413
92,72,Hf,8.0438142,-8.535551100000001,163.944370709,18.7925665,6.575135,3.9199548,-13.582801100000001,0.1865511,-17.355040400000004,10.6203539,4.3159126,-31.3936329,11.72421,5.6080483,11.6622942
91,73,Ta,7.9869978,-5.04725,163.953534,19.6440365,5.028988,4.5622214,-15.8103638,4.219638600000001,-16.445684399999998,8.8194892,1.3024558,-35.799,16.5964278,7.8970675,14.9259464
90,74,W,7.9514515,-10.7631138,163.958952445,20.3789745,3.6450714,5.278276300000001,-17.8108318,3.7447942,-20.3046203,11.3984345,2.9898923,,12.256656600000001,5.407075300000001,13.726664500000002
89,75,Re,7.8810523,-7.047718,163.970507122,21.162,2.2689787000000003,5.9263426,-19.989,7.7732215,-19.207,9.5415065,-0.1470263,,17.2375824,7.899,16.952536100000003
88,76,Os,7.833308,-12.941,163.978073158,22.068,1.0034488,6.4794339,,7.194744300000001,-23.186,12.16,1.7114416000000001,,12.739,5.2821519,15.729000000000001
87,77,Ir,7.75,,163.991966,,-0.392,6.97,,11.23,,10.244,-1.564,,17.727,7.577,19.006
103,62,Sm,8.041,7.219,164.95329,9.053,24.008,-3.705,13.016,,1.651,3.656,12.439,20.102,10.16,7.394,1.1460000000000001
102,63,Eu,8.0800529,5.7966788,164.94554007,10.2979205,22.347,-3.0674302,9.8597462,-19.658,0.8932663000000001,5.568275300000001,10.0927598,14.1689141,10.5813153,8.5140054,0.9570000000000001
101,64,Gd,8.1104428,4.0630673999999996,164.93931708,11.2798274,20.5041127,-2.2786545,7.0865066,-15.889438700000001,-2.4921167,4.903412599999999,10.582607099999999,7.9955705,10.758843800000001,7.061217,3.4996735
100,65,Tb,8.1303259,3.0234392,164.934955198,12.135731900000001,18.592972699999997,-1.2221641,4.3091679,-14.6456745,-2.6925187999999998,6.555184100000001,8.1841329,2.3411749,11.5105484,8.5559258,3.7804966
99,66,Dy,8.1439083,1.2857287,164.931709402,13.374067,16.80164,-0.5310627,0.9090639,-11.2075721,-6.7030895,5.715958,8.7962763,-3.3169008,11.694272000000002,7.1313144,6.3148335
98,67,Ho,8.1469591,-0.3766648,164.930329116,14.6626266,14.8802058,0.1388443,-1.9679929999999999,-10.082004999999999,-7.0267622,7.9888182,6.219339700000001,-8.4557698,12.1936474,8.1472073,6.627932700000001
97,68,Er,8.1399348,-1.5913282,164.930733482,15.4965759,12.7184369,1.1092257,-4.2259647000000005,-5.8426749000000004,-10.6837277,6.6500975,6.829806400000001,-12.88584,12.567481299999999,6.383265300000001,9.3062191
96,69,Tm,8.1255489,-2.6346363999999998,164.932441843,16.3442477,11.1299396,1.8413536,-6.4877768,-5.2384781,-9.989171700000002,9.0923994,4.2764222,-17.082152699999998,12.9481955,8.2682413,8.7569406
95,70,Yb,8.1048399,-3.8531403,164.935270241,17.1441458,9.7059172,2.4809947,-8.6598753,-1.6417858,-13.724330400000001,7.354535200000001,5.675416,-21.4340717,13.1438319,6.0461496,11.6852248
94,71,Lu,8.076746,-4.806735,164.939406758,17.7934691,8.2917769,3.0315512,-10.5943759,-1.8222757,-12.6952095,9.8711901,2.7190479,-25.782894100000004,13.5624377,8.2429709,10.681636899999999
93,72,Hf,8.0428728,-5.787641,164.944567,18.5088285,6.919576500000001,3.7738196,-12.774196400000001,2.0876871,-16.424025699999998,7.8884745,4.2821081,-29.889,13.866709,6.0603017,13.8320529
92,73,Ta,8.0030547,-6.986555500000001,164.950780287,19.4558739,5.6343990999999995,4.2895617,-15.1885181,1.5055329,-15.6836347,10.6363847,1.3184866,-34.253,14.1322557,8.1846093,12.6302897
91,74,W,7.9559704,-8.201962700000001,164.958280663,20.0955137,4.169938,5.0295853,-17.115000000000002,5.668068900000001,-19.460193,8.697079200000001,2.8674822,-38.543,14.384124700000001,5.7841436999999996,15.953511800000001
90,75,Re,7.9015201,-8.913,164.967085831,20.7997369,2.7026618,5.6943058,-19.064,5.3344804,-18.3059483,11.2582303,-0.2872305,,14.9598921,8.203918400000001,14.7684533
89,76,Os,7.843,-10.151,164.976654,21.553,1.416,6.3354935,-21.428,9.200000000000001,-22.335,9.393,1.563,,14.967,5.5703508,17.899
88,77,Ir,7.776,-11.277000000000001,164.987552,22.427,0.171,6.823,,8.588000000000001,,12.183,-1.541,,15.452,7.769,16.504
104,62,Sm,8.023,6.299,165.956575,8.667,,-3.865,13.921000000000001,,2.208,5.011,13.069,22.134,8.621,7.3740000000000006,-0.724
103,63,Eu,8.056000000000001,7.622,165.949813,9.659,22.967,-3.134,11.06,-19.368000000000002,1.706,4.091,10.528,16.321,11.887,8.715,1.857