N,Z,element,be_per_a,beta_decay_energy,atomic_mass,s2n,s2p,qa,q2b,qep,qbn,s1n,s1p,q4b,qda,qpa,qna
72,54,Xe,8.443541,-4.796133,125.904296794,17.62818,13.199580000000001,-1.2574200000000002,-6.477060000000001,-7.41296,-13.13033,10.0249,7.59873,-18.326400000000003,8.92958,3.66082,5.671600000000001
71,55,Cs,8.399268000000001,-1.6809269999999998,125.909445655,18.762130000000003,11.56304,-0.69529,-9.377360000000001,-2.8026,-12.75318,8.334200000000001,4.44642,-24.027,14.0214,5.76193,9.2393
70,56,Ba,8.379718,-7.696435,125.911250204,19.722759999999997,9.58642,0.26016000000000006,-11.84934,-2.76549,-16.981740000000002,11.07225,5.87092,-29.677,9.77224,3.2378000000000005,8.225200000000001
69,57,La,8.312426,-4.15291,125.919512667,20.857490000000002,7.82007,0.74638,-14.65,1.82551,-16.387,9.2853,2.59347,-35.623,14.827110000000001,5.54554,11.71658
68,58,Ce,8.273257,-10.497,125.923971,22.047,6.30872,1.36347,-17.828,1.5594400000000002,-20.952,12.234,4.35004,,10.14886,2.695,10.4808
67,59,Pr,8.184000000000001,-7.331,125.93524,23.315,4.643,1.795,-20.974,6.147,-20.796,10.455,0.9550000000000001,,15.303,4.827,13.974
66,60,Nd,8.119,-13.643,125.94311,24.61,2.6550000000000002,2.456,,6.376,,13.465,2.342,,10.869,2.101,12.94
65,61,Pm,8.005,,125.957756,,0.777,3.005,,11.301,,,-0.96,,15.886000000000001,,16.526
82,45,Rh,8.062,13.15,126.963467,8.173,,,24.41,,9.758000000000001,4.8020000000000005,,42.866,,4.7940000000000005,
81,46,Pd,8.159,11.26,126.94935,9.203,,-12.525,21.567,,5.429,3.391,17.169,36.291000000000004,5.531,2.574,-7.573
80,47,Ag,8.242,10.307,126.937262,10.063,31.018,-11.505,18.456,-28.429000000000002,5.745,5.831,13.869,28.259,6.391,4.814,-7.904
79,48,Cd,8.316945,8.148782,126.926196624,11.54194,29.206,-10.74258,14.7234,-24.176000000000002,0.9541900000000001,4.56192,15.356,19.53428,6.48334,2.31679,-4.711
78,49,In,8.374949,6.574619,126.917448546,12.56201,26.95419,-9.77302,9.80329,-23.505,1.0477400000000001,7.194590000000001,11.92835,12.08773,7.16272,4.6695400000000005,-5.04965
77,50,Sn,8.420557,3.2286740000000003,126.910390401,13.71706,24.700650000000003,-8.48154,4.81087,-18.50297,-5.14888,5.52688,12.986870000000001,4.85076,7.716810000000001,2.2634499999999997,-1.12273
76,51,Sb,8.43982,1.582201,126.906924277,14.585840000000001,20.800610000000002,-5.69404,2.28443,-16.21554,-4.70545,8.37755,7.97321,-0.45932,9.9077,6.398770000000001,-0.18287
75,52,Te,8.446118,0.702231,126.905225714,15.401340000000001,16.963240000000003,-2.8904099999999997,0.039880000000000006,-9.55541,-8.44168,6.28765,9.17741,-5.46373,10.6854,4.20263,5.598920000000001
74,53,I,8.445487,-0.6623490000000001,126.904471838,16.28934,15.30558,-2.1847600000000003,-2.7437600000000004,-9.87964,-7.90826,9.14391,6.20753,-11.0878,10.749870000000001,6.40547,4.2827399999999995
73,54,Xe,8.434111000000001,-2.081406,126.905182899,17.27081,13.87653,-1.57432,-5.50362,-5.54518,-12.04205,7.24592,7.69921,-16.34222,11.226450000000002,3.90823,7.85016
72,55,Cs,8.411562,-3.42221,126.907417381,18.29484,11.98089,-0.7213400000000001,-8.34405,-5.61781,-11.64157,9.96064,4.38216,-21.697,11.66403,6.28532,6.77198
71,56,Ba,8.378455,-4.921836000000001,126.911091275,19.291610000000002,10.2025,0.00584,-10.838610000000001,-0.9599500000000001,-15.915790000000001,8.21936,5.75609,-27.282,11.98081,3.77745,10.48988
70,57,La,8.333540000000001,-5.916772,126.916375084,20.279259999999997,8.3861,0.72262,-13.353,-0.83425,-15.146870000000002,10.99396,2.51518,-33.11,12.48366,6.057720000000001,9.48163
69,58,Ce,8.280790999999999,-7.436,126.922727,21.464000000000002,6.888310000000001,1.2507000000000001,-16.444,3.4016,-19.727,9.2301,4.294840000000001,,12.490950000000002,3.14333,12.75684
68,59,Pr,8.216,-9.008000000000001,126.93071,22.746000000000002,5.362,1.683,-19.757,3.141,-19.622,12.291,1.012,,12.825000000000001,5.237,11.362
67,60,Nd,8.139,-10.749,126.94038,24.079,3.456,2.326,,7.996,-24.257,10.614,2.501,,13.115,2.479,15.027000000000001
66,61,Pm,8.048,,126.95192,,1.424,3.019,,8.248,,13.508000000000001,-0.917,,13.524000000000001,4.603,14.011000000000001
82,46,Pd,8.138,10.13,127.952238,8.773,,-12.955,22.752,,5.8790000000000004,5.381,17.749,38.872,3.521,2.374,
81,47,Ag,8.211,12.622,127.941363,10.082,31.898,-12.155000000000001,19.526,-27.879,6.056,4.251,14.729000000000001,30.01,7.9510000000000005,4.364,-6.973
80,48,Cd,8.303263999999999,6.904051000000001,127.927812857,11.12772,29.96,-11.277000000000001,16.12012,-27.351,1.58298,6.565810000000001,16.091,21.75183,4.149,2.1421,-7.476
79,49,In,8.351090000000001,9.216066999999999,127.920401053,12.51567,28.044,-10.37072,10.484350000000001,-22.995,1.25354,5.32107,12.68751,13.592780000000001,8.821670000000001,4.06621,-3.97961
78,50,Sn,8.416979,1.268278,127.910507197,13.4894,25.68315,-9.08525,5.63171,-21.90358,-4.73385,7.9625200000000005,13.754790000000002,6.49829,5.12171,1.97885,-4.36751
77,51,Sb,8.420774999999999,4.363429,127.909145645,14.37968,21.43532,-6.1850000000000005,3.1084400000000003,-15.02307,-4.419930000000001,6.00213,8.448450000000001,1.30129,12.09576,6.130140000000001,1.49292
76,52,Te,8.448752,-1.2549919999999999,127.904461311,15.071,17.55642,-3.18444,0.86658,-12.811879999999999,-8.08112,8.78335,9.58321,-3.61522,8.11033,4.1266099999999994,2.54906
75,53,I,8.432836,2.121575,127.9058086,15.970040000000001,15.92342,-2.54339,-1.8071400000000002,-8.32822,-7.48848,6.82613,6.746020000000001,-9.113290000000001,13.03743,6.14831,6.16395
74,54,Xe,8.443298,-3.9287170000000002,127.903530996,16.855970000000003,14.37289,-1.7598900000000002,-4.481800000000001,-8.86759,-11.69146,9.610059999999999,8.16536,-14.32638,8.76183,3.84096,4.80908
73,55,Cs,8.406493000000001,-0.5530839999999999,127.907748648,17.72339,12.5982,-0.99076,-7.30615,-4.23664,-11.18495,7.76274,4.8989899999999995,-19.60082,13.92619,6.125850000000001,8.55203
72,56,Ba,8.39606,-6.753066,127.908342408,18.85123,10.80948,-0.14199,-9.84458,-4.34591,-15.553709999999999,10.631870000000001,6.42731,-25.064,9.68314,3.57351,7.46129
71,57,La,8.337190000000001,-3.091513,127.915592123,19.7946,8.852540000000001,0.68099,-12.29467,0.32575,-14.717410000000001,8.80064,3.09646,-30.84,14.75528,5.90759,11.10892
70,58,Ce,8.306925,-9.203161,127.918911,20.855990000000002,7.44196,1.13094,-15.22,-0.004940000000000001,-19.062,11.6259,4.92678,-36.864000000000004,10.150360000000001,3.08962,9.781450000000001
69,59,Pr,8.228913,-6.017,127.928791,22.150000000000002,5.93523,1.5029400000000002,-18.545,4.2763800000000005,-18.866,9.859,1.6403900000000002,,15.200610000000001,5.191,13.07513
68,60,Nd,8.176,-12.529,127.93525,23.464000000000002,4.072,2.177,-21.644000000000002,4.376,-23.599,12.85,3.06,,10.72,2.49,11.99
67,61,Pm,8.072000000000001,-9.116,127.9487,24.578,2.04,2.94,,9.469,,11.071,-0.461,,15.918000000000001,4.678,15.801
66,62,Sm,7.994,,127.958486,,0.255,3.43,,9.577,,,1.173,,11.391,,14.576
83,46,Pd,8.084,14.370000000000001,128.959624,6.572,,,25.448,,8.939,1.191,,42.981,7.131,4.554,
82,47,Ag,8.189,11.078,128.944197,9.683,32.528,-12.405000000000001,20.858,,7.19,5.431,14.779,32.649,5.9110000000000005,4.744,-9.034
81,48,Cd,8.269034,9.779674000000002,128.932304399,10.453280000000001,30.456,-11.363,17.53286,-25.857,3.01658,3.88747,15.727,23.946759999999998,6.093,2.486,-5.5520000000000005
80,49,In,8.338780000000002,7.753183,128.921805486,12.08417,28.976,-10.742700000000001,11.791590000000001,-25.507,2.4529699999999997,6.7631000000000006,12.8848,15.6694,6.62049,4.28314,-6.511
79,50,Sn,8.392818,4.038404,128.913482102,13.26273,26.42144,-9.66772,6.4139,-20.63798,-4.03193,5.30021,13.73393,8.10516,7.01609,2.0460599999999998,-2.6877
78,51,Sb,8.418058,2.3755,128.909146696,14.07246,22.31106,-6.57742,3.8778200000000003,-17.77234,-3.70691,8.07034,8.556270000000001,2.86994,9.552299999999999,6.2499899999999995,-1.21
77,52,Te,8.430409,1.502318,128.906596492,14.86576,18.11195,-3.53335,1.6912500000000001,-10.93177,-7.3374,6.08241,9.66349,-1.9416099999999998,10.405479999999999,4.25249,4.65683
76,53,I,8.43599,0.188934,128.904983687,15.66585,16.38559,-2.67577,-1.00788,-11.16581,-6.718140000000001,8.83972,6.80238,-7.18255,10.48536,6.42228,3.53252
75,54,Xe,8.43139,-1.1968130000000001,128.90478085892,16.51713,14.99232,-2.098,-3.6328600000000004,-6.99131,-10.835799999999999,6.90708,8.24631,-12.40856,10.99866,4.07931,7.015689999999999
74,55,Cs,8.416047,-2.436048,128.90606569,17.40173,13.093280000000002,-1.0869600000000001,-6.17467,-7.04949,-10.19207,9.63898,4.92792,-17.72569,11.53312,6.51177,6.058470000000001
73,56,Ba,8.391098,-3.738625,128.908680896,18.38789,11.31958,-0.29473000000000005,-8.7757,-2.49187,-14.50908,7.75602,6.420590000000001,-22.748,11.88776,4.151689999999999,9.730170000000001
72,57,La,8.356052,-5.037077,128.912694475,19.571099999999998,9.662360000000001,0.33846,-11.55101,-2.68196,-13.86197,10.77046,3.23505,-28.444,12.204180000000001,6.20938,8.67266
71,58,Ce,8.31094,-6.5139380000000005,128.918102,20.45079,8.04749,0.95655,-13.973,1.80203,-18.02806,8.8249,4.95104,-34.287,12.319420000000001,3.5500300000000005,12.02881
70,59,Pr,8.25438,-7.4590000000000005,128.925095,21.373,6.45539,1.56101,-16.893,1.5629000000000002,-17.531,11.514120000000002,1.52861,,12.91658,5.91105,10.846309999999999
69,60,Nd,8.19,-9.434000000000001,128.933102,22.922,4.914,1.9180000000000001,-20.315,5.93,-22.601,10.072000000000001,3.273,,12.939,2.873,14.152000000000001
68,61,Pm,8.111,-10.881,128.94323,24.237000000000002,2.916,2.634,,6.1610000000000005,-22.282,13.167,-0.14400000000000002,,13.366,4.976,13.089
67,62,Sm,8.021,,128.954911,,1.042,3.174,,11.025,,11.401,1.5030000000000001,,13.497,2.214,16.639
83,47,Ag,8.14,15.42,129.950942,7.22,,-10.822000000000001,24.186,,9.289,1.7890000000000001,15.376,36.588,9.503,6.347,-6.021
82,48,Cd,8.252585999999999,8.765617,129.934387566,10.01833,31.206,-11.683,19.01462,-30.797,3.64881,6.13086,16.426000000000002,26.23536,4.213,2.187,-8.291
81,49,In,8.313996,10.249,129.924977288,11.8799,29.841,-11.628,12.40247,-25.192,2.63638,5.1168000000000005,14.11413,17.05293,8.06949,3.72825,-5.797
80,50,Sn,8.386816000000001,2.15347,129.913974533,12.91283,27.468259999999997,-10.30032,7.22074,-24.36313,-3.57422,7.61262,14.583459999999999,9.74826,4.72454,1.62803,-5.7383999999999995
79,51,Sb,8.397363,5.067273,129.911662688,13.798020000000001,22.71768,-6.93768,4.65046,-16.73693,-3.3521900000000002,5.72769,8.98374,4.61407,11.787139999999999,6.049180000000001,0.25691
78,52,Te,8.430324,-0.416811,129.906222747,14.50187,18.56888,-3.76262,2.5275100000000004,-14.051020000000001,-6.917140000000001,8.419459999999999,10.01261,-0.09140000000000001,7.9881400000000005,4.21058,1.76426
77,53,I,8.421100000000001,2.944325,129.906670211,15.34005,16.88379,-2.96781,-0.03639,-9.595799999999999,-6.3114,6.50033,7.2203,-5.308770000000001,12.768379999999999,6.209600000000001,5.40974
76,54,Xe,8.437731,-2.98072,129.903509349,16.1628,15.464690000000001,-2.2400300000000004,-2.61892,-10.164629999999999,-10.452530000000001,9.25572,8.66231,-10.457559999999999,8.56907,3.9675000000000002,4.04762
75,55,Cs,8.408784,0.361801,129.906709283,17.1108,13.738959999999999,-1.41334,-5.27238,-5.68159,-9.907860000000001,7.4718100000000005,5.492649999999999,-15.724290000000002,13.671360000000002,6.28587,7.73057
74,56,Ba,8.405549,-5.634178,129.906320874,18.02568,11.979190000000001,-0.5395,-7.838640000000001,-5.85446,-14.00829,10.26966,7.051270000000001,-20.66531,9.380840000000001,3.84267,6.7064200000000005
73,57,La,8.356191,-2.204461,129.912369413,19.14457,10.27373,0.29855000000000004,-10.45191,-1.41709,-13.411190000000001,8.37411,3.85314,-26.231,14.46194,6.05463,10.25919
72,58,Ce,8.333216,-8.247448,129.914736,20.03162,8.62235,0.82208,-12.82667,-1.6486800000000001,-17.72066,11.20673,5.387300000000001,-31.917,9.91333,3.33726,9.041440000000001
71,59,Pr,8.263755999999999,-4.579225,129.92359,20.987330000000004,7.12797,1.3731,-15.780000000000001,2.86015,-16.932,9.47322,2.17693,-37.492,15.069270000000001,5.66793,12.367049999999999
70,60,Nd,8.222513000000001,-11.200000000000001,129.928506,22.425,5.6402600000000005,1.7994100000000002,-19.09,2.40229,-21.787,12.353,4.11164,,10.44533,2.811,11.02951
69,61,Pm,8.13,-7.890000000000001,129.94053,23.753,3.6430000000000002,2.503,-21.713,7.089,-21.467,10.586,0.37,,15.629,5.0040000000000004,14.794
68,62,Sm,8.064,-13.823,129.949,24.979,1.77,3.0620000000000003,,7.5200000000000005,,13.577,1.9140000000000001,,10.99,2.144,13.676
67,63,Eu,7.9510000000000005,,129.96384,,0.47500000000000003,3.242,,11.909,,,-1.028,,15.698,,16.749
84,47,Ag,8.099,14.839,130.95665,4.543,,-8.775,27.645,,12.666,2.754,,41.601,7.941,8.974,
83,48,Cd,8.206175,12.806066000000001,130.94072,8.30355,32.187,-10.464,22.04561,,6.59292,2.1726900000000002,16.811,29.99205,7.472,4.265,-5.083
82,49,In,8.297959,9.239541,130.926972122,11.32994,30.623,-12.01,13.956370000000001,-29.617,4.0358600000000004,6.21314,14.19641,19.41768,5.7438199999999995,4.08092,-7.759
81,50,Sn,8.362517,4.71683,130.917053066,12.8163,28.784470000000002,-10.94209,7.94644,-23.435950000000002,-3.0502100000000003,5.20368,14.670340000000001,11.14899,6.28396,1.74543,-4.3762799999999995
80,51,Sb,8.392552,3.229611,130.911989341,13.49473,23.721619999999998,-7.51013,5.46131,-19.387169999999998,-2.69977,7.76704,9.13817,6.077380000000001,9.32031,6.24466,-2.18906
79,52,Te,8.411233000000001,2.2316990000000003,130.908522211,14.348840000000001,19.19805,-4.16512,3.2025500000000005,-12.367780000000002,-6.34619,5.92938,10.21431,1.47272,10.129100000000001,4.28333,3.7974
78,53,I,8.422297,0.9708479999999999,130.906126384,15.07822,17.39134,-3.1681500000000002,0.6160800000000001,-12.446,-5.63356,8.57789,7.37873,-3.67345,10.2729,6.41506,2.83398
77,54,Xe,8.423736000000002,-0.354772,130.905084136,15.86013,15.986690000000001,-2.5568000000000004,-1.72983,-8.34958,-9.58513,6.60441,8.76639,-8.70512,10.80437,4.189220000000001,6.22656
76,55,Cs,8.415056,-1.3750550000000001,130.905464999,16.70217,14.1296,-1.49979,-4.28953,-8.411620000000001,-8.86856,9.230360000000001,5.46729,-13.75813,11.34808,6.66557,5.32634
75,56,Ba,8.398587,-2.914475,130.906941181,17.76317,12.565610000000001,-0.7870900000000001,-6.97529,-4.092239999999999,-13.12768,7.4935,7.07296,-18.9157,11.52632,4.1118999999999994,8.82297
74,57,La,8.370367,-4.060816,130.91007,18.587320000000002,10.84795,0.04598,-9.4686,-4.15848,-12.417670000000001,10.21321,3.79668,-24.109,12.00475,6.4733,7.80873
73,58,Ce,8.333396,-5.4077839999999995,130.914429465,19.56358,9.223180000000001,0.68459,-11.94041,0.26413,-16.6043,8.35685,5.37004,-29.575,12.32694,3.7810500000000005,11.31646
72,59,Pr,8.286143000000001,-6.532623,130.92023496,20.66973,7.55402,1.17054,-14.64,0.03774,-15.77574,11.196520000000001,2.1667199999999998,-35.031,12.69765,6.09732,9.97118
71,60,Nd,8.230304,-8.108,130.92724802,21.596,6.058479999999999,1.7863900000000001,-17.635,4.3659,-20.443,9.243120000000001,3.8815500000000003,,12.716330000000001,3.4267800000000004,13.41229
70,61,Pm,8.162,-9.527000000000001,130.935952,22.922,4.465,2.458,-20.39,4.226,-20.225,12.336,0.353,,13.365,5.518,12.317
69,62,Sm,8.084,-10.863,130.94618,24.276,2.396,2.978,,9.174,-24.521,10.698,2.0260000000000002,,13.459,2.517,15.828000000000001
68,63,Eu,7.995,,130.957842,,0.967,3.091,,8.837,,13.658,-0.9470900000000001,,13.441,4.264,14.162
85,47,Ag,8.049,16.473,131.963725,4.235,,,28.622,,13.358,1.481,,45.845,,8.684000000000001,
84,48,Cd,8.168000000000001,12.148,131.94604,5.288,,-8.198,26.283,,9.69,3.116,17.172,34.925000000000004,6.1450000000000005,6.581,-7.007000000000001
83,49,In,8.253715,14.135,131.932998449,8.670969999999999,31.292,-10.216000000000001,17.22373,-29.32,6.78171,2.45783,14.48155,23.29195,9.41685,5.510560000000001,-4.785
82,50,Sn,8.354872,3.088729,131.917823902,12.55697,30.00689,-11.72957,8.641639999999999,-28.61655,-2.63646,7.35329,15.81048,12.732420000000001,4.04747,1.15523,-7.842090000000001
81,51,Sb,8.372344,5.5529150000000005,131.914508015,13.49223,24.330009999999998,-7.91425,6.06822,-18.89921,-2.49558,5.72519,9.65967,7.51741,11.20774,5.81969,-1.1511500000000001
80,52,Te,8.408485,0.515304,131.908546716,13.977870000000001,19.63392,-4.2510900000000005,4.0907800000000005,-15.21258,-5.81679,8.04849,10.49576,3.24683,7.8083,4.30518,1.0491199999999998
79,53,I,8.406462,3.5754720000000004,131.907993514,14.90999,17.99575,-3.49812,1.44919,-11.01106,-5.36125,6.3321000000000005,7.78145,-1.97984,12.36027,6.16537,4.572220000000001
78,54,Xe,8.427622,-2.1262800000000004,131.90415508697,15.541129999999999,16.50395,-2.71016,-0.84394,-11.35692,-9.29149,8.93672,9.125219999999999,-6.80807,8.36798,4.09222,3.37225
77,55,Cs,8.405587,1.2823360000000001,131.906437743,16.39557,14.79448,-1.83887,-3.4290300000000005,-6.99894,-8.540270000000001,7.16521,6.028090000000001,-11.925229999999999,13.43859,6.407430000000001,7.000850000000001
76,56,Ba,8.409375,-4.711367,131.905061098,17.316110000000002,13.1325,-0.99963,-5.96412,-7.31043,-12.73708,9.822600000000001,7.6652,-17.00921,9.17553,3.9282800000000004,5.907439999999999
75,57,La,8.367756,-1.252754,131.910118959,18.23892,11.401850000000001,-0.21698,-8.49619,-2.95383,-12.086530000000002,8.02571,4.32889,-22.096,14.248700000000001,6.203600000000001,9.422
74,58,Ce,8.352338,-7.24344,131.911463846,19.190630000000002,9.78729,0.48269,-11.04509,-3.07614,-16.24156,10.833770000000001,5.99061,-27.392,9.867280000000001,3.71773,8.238700000000001
73,59,Pr,8.291537,-3.801648,131.91924,20.19463,8.17803,0.9730599999999999,-13.6,1.2528299999999999,-15.53074,8.99812,2.8079899999999998,-33.027,14.906260000000001,5.9241,11.74352
72,60,Nd,8.25681,-9.798,131.923321237,20.97221,6.58084,1.6831900000000002,-16.347,0.99366,-19.837,11.729090000000001,4.41412,,10.46046,3.21181,10.508090000000001
71,61,Pm,8.177,-6.548,131.93384,22.374,5.03,2.278,-19.427,5.384,-19.566,10.039,1.149,,15.679,5.551,13.792
70,62,Sm,8.121,-12.879,131.94087,23.716,3.061,2.81,,5.4,-23.88,13.018,2.708,,11.028,2.666,12.882
69,63,Eu,8.018,,131.954696,24.66,1.3820000000000001,3.16,,10.171,,11.002,-0.644,,16.017,4.664,16.327
85,48,Cd,8.119,13.544,132.95285,4.844,,-8.735,26.954,,10.42,1.728,17.419,39.017,7.171,6.641,
84,49,In,8.215,13.41,132.93831,5.581,31.662,-7.909,21.46,-30.963,11.011000000000001,3.124,14.489,28.394000000000002,8.466,8.518,-6.12
83,50,Sn,8.310088,8.049623,132.923913756,9.751940000000001,30.232860000000002,-10.24075,12.06324,-27.899,0.6900700000000001,2.39865,15.75131,16.76969,7.86196,3.87338,-4.10989
82,51,Sb,8.364728999999999,4.013619,132.91527213,13.08474,25.47641,-8.510700000000002,6.934760000000001,-23.80093,-1.8066300000000002,7.3595500000000005,9.665930000000001,9.14743,9.051870000000001,6.072760000000001,-3.39389
81,52,Te,8.389025,2.921139,132.910963332,13.86874,20.250490000000003,-4.77113,4.70645,-13.679549999999999,-5.30495,5.82025,10.59082,4.61649,9.755090000000001,4.21261,2.84149
80,53,I,8.405106,1.7853109999999999,132.907827361,14.55818,18.4548,-3.65387,2.21267,-13.51196,-4.65062,8.226090000000001,7.95905,-0.36388,10.063559999999999,6.35874,2.07382
79,54,Xe,8.412647000000002,0.42736,132.90591075,15.37265,17.0105,-3.0636799999999997,-0.08996,-9.74436,-8.562209999999999,6.435930000000001,9.229049999999999,-5.225359999999999,10.509950000000002,4.15662,5.35578
78,55,Cs,8.409977999999999,-0.517319,132.905451961,16.154780000000002,15.20616,-1.98872,-2.57655,-9.65641,-7.70723,8.98957,6.08094,-10.13335,11.05343,6.67359,4.51161
77,56,Ba,8.400206,-2.05923,132.906007325,17.012520000000002,13.718,-1.28247,-5.1354,-5.56362,-11.901280000000002,7.18991,7.6899,-15.22124,11.21598,4.21019,7.97325
76,57,La,8.378841000000001,-3.076168,132.908218,17.86776,12.01354,-0.42005000000000003,-7.5568,-5.63067,-11.0948,9.842049999999999,4.34834,-20.086740000000002,11.90015,6.631220000000001,7.051760000000001
75,58,Ce,8.349829,-4.480634,132.911520402,18.85241,10.31242,0.22007,-10.085840000000001,-1.27217,-15.262080000000001,8.018640000000001,5.9835400000000005,-25.187,12.06185,4.07321,10.48973
74,59,Pr,8.310258,-5.605207999999999,132.916330561,19.77956,8.74627,0.96208,-12.52993,-1.5029000000000001,-14.58309,10.78144,2.7556599999999998,-30.702,12.481670000000001,6.34938,9.33619