N,Z,element,be_per_a,beta_decay_energy,atomic_mass,s2n,s2p,qa,q2b,qep,qbn,s1n,s1p,q4b,qda,qpa,qna
56,39,Y,8.604973,4.451092,94.912818711,13.124319999999999,23.16689,-5.88873,5.5774099999999995,-19.935029999999998,-2.01084,6.9287,9.65211,4.8124899999999995,9.5878,6.52257,-0.79001
55,40,Zr,8.643592,1.126318,94.908040267,14.68054,20.152040000000003,-4.432930000000001,2.05192,-14.103200000000001,-7.36219,6.461930000000001,10.59745,-2.2021900000000003,9.278020000000001,4.0206100000000005,2.8538200000000002
54,41,Nb,8.647212,0.925601,94.906831115,15.71605,17.137040000000002,-2.85988,-0.7649199999999999,-11.72377,-6.443510000000001,8.48851,6.80591,-8.44565,11.04658,6.53682,3.67664
53,42,Mo,8.648719999999999,-1.690518,94.905837442,17.04742,15.16777,-2.24121,-4.25411,-7.73151,-11.62486,7.36911,8.631770000000001,-17.74596,10.21179,3.6054899999999996,6.3935699999999995
52,43,Tc,8.62269,-2.563596,94.907652287,18.557869999999998,13.38644,-1.8082500000000001,-7.68073,-6.94125,-11.50907,9.93434,4.89625,-26.424,11.496530000000002,5.65129,6.07835
51,44,Ru,8.58747,-5.117138,94.91040442,22.38367,11.228620000000001,-3.67384,-13.49184,-2.33265,-18.62145,8.94547,6.5884,-36.827,10.85917,0.332,8.99723
50,45,Rh,8.52537,-8.374706,94.915897895,25.471439999999998,9.31244,-4.77888,-18.744,-1.47126,-20.30966,13.50431,3.0459899999999998,,9.58691,0.82465,6.23149
49,46,Pd,8.42898,-10.369,94.924888512,27.108,7.32713,-4.15099,-23.335,5.328720000000001,-25.628,11.93495,4.34726,,9.75671,-2.1027600000000004,9.981700000000002
48,47,Ag,8.312,-12.966000000000001,94.93602,29.472,5.163,-3.452,,6.022,-27.528000000000002,15.259,0.784,,10.115,-0.153,9.049
47,48,Cd,8.167,,94.94994,,2.208,-3.125,,12.183,,14.562000000000001,1.51,,10.348,-4.636,13.596
61,35,Br,8.184000000000001,14.916,95.95903,6.906000000000001,,-9.607,23.191,,9.924,2.464,14.992,40.173,9.351,7.416,
60,36,Kr,8.330851000000001,8.274671,95.943016618,7.8745400000000005,30.854,-8.781,19.84448,-29.909,4.7405,4.99208,16.598,32.35917,5.031,4.6746099999999995,-6.718
59,37,Rb,8.408896,11.569808000000002,95.934133393,8.9342,28.532,-7.546460000000001,16.98155,-24.872,5.69388,3.53417,12.48441,24.24847,10.704229999999999,7.6457,-2.81772
58,38,Sr,8.521265,5.411738000000001,95.921712692,10.22108,26.15433,-6.57975,12.514690000000002,-24.05421,0.21337,5.87592,14.321629999999999,15.87072,6.349430000000001,4.5598,-3.14176
57,39,Y,8.569488,7.102951,95.915902953,12.12707,24.35105,-5.98837,7.26692,-19.73337,-0.74727,5.19836,10.50531,7.48574,11.22062,6.614,-0.06959
56,40,Zr,8.635327,0.163971,95.908277621,14.31216,21.171080000000003,-4.9963999999999995,3.35603,-17.608259999999998,-6.72391,7.85022,11.51897,0.6415299999999999,7.62342,3.65237,0.29339
55,41,Nb,8.628886000000001,3.1920590000000004,95.908101591,15.376389999999999,17.8293,-3.2112399999999997,0.21882,-11.68294,-5.96228,6.88788,7.2318500000000006,-5.915100000000001,12.37731,6.38327,4.27074
54,42,Mo,8.653986999999999,-2.9732420000000004,95.904674774,16.52345,16.10349,-2.7607600000000003,-2.7145,-10.42391,-10.844850000000001,9.15433,9.29759,-12.611469999999999,8.28499,3.28202,3.97356
53,43,Tc,8.614866000000001,0.258738,95.907866681,17.805950000000003,14.030510000000001,-1.79326,-6.13392,-6.324350000000001,-10.43521,7.8716099999999996,5.39875,-21.31,13.30324,5.84949,7.03761
52,44,Ru,8.609412,-6.392654,95.907588914,19.63941,12.244250000000001,-1.6967100000000002,-9.89697,-5.65748,-15.81108,10.693940000000001,7.348,-30.507,8.78875,2.38979,6.373100000000001
51,45,Rh,8.534673000000002,-3.504312,95.91445171,22.92274,10.10734,-3.1869400000000003,-15.17608,-0.95535,-17.79314,9.41843,3.51894,-41.797000000000004,13.60668,2.39305,9.56479
50,46,Pd,8.490020000000001,-11.671771000000001,95.918213744,26.223770000000002,8.177760000000001,-4.30712,-20.61,-0.01463,-24.658,14.28882,5.13177,,7.43501,-2.3075500000000004,6.67971
49,47,Ag,8.36029,-8.939,95.930743906,28.245,6.18196,-3.93746,-26.621000000000002,6.54,-25.952,12.986,1.83471,,12.301440000000001,-0.647,10.14657
48,48,Cd,8.259,-17.683,95.94034,31.576,4.049,-3.418,,7.104,,17.014,3.265,,7.547000000000001,-4.442,9.074
47,49,In,8.067,,95.959323,,0.059000000000000004,-3.185,,14.418000000000001,,,-1.451,,12.96,,14.023
62,35,Br,8.14,13.368,96.96344,6.4270000000000005,,,24.464000000000002,,10.953,3.963,,42.066,7.115,7.612,
61,36,Kr,8.269864,11.095645000000001,96.949088784,7.40721,31.542,-9.133000000000001,21.15796,,5.85954,2.41513,16.549,35.519169999999995,7.058,4.841,-4.974
60,37,Rb,8.376186,10.062317,96.937177118,8.770280000000001,29.326,-8.05382,17.60229,-27.645,6.3337,5.23611,12.728430000000001,27.08664,8.35058,7.69269,-5.473
59,38,Sr,8.471856,7.539969,96.926374776,9.604540000000002,27.00048,-6.87038,14.36121,-22.79075,1.68312,3.72861,14.51608,18.963240000000003,8.02084,4.84539,-1.58728
58,39,Y,8.541522,6.821237,96.918280286,11.055209999999999,24.80787,-5.9264399999999995,9.484350000000001,-22.056040000000003,1.2461099999999998,5.8568500000000006,10.48624,11.103,9.70893,7.5883400000000005,-1.91224
57,40,Zr,8.603779000000001,2.663115,96.910957386,13.425360000000001,22.40105,-5.28174,4.60203,-17.307470000000002,-5.41116,5.575130000000001,11.89574,3.17789,8.97699,4.27286,1.54945
56,41,Nb,8.623168,1.938915,96.908098414,14.96215,18.97487,-3.8035300000000003,1.6186500000000001,-14.558850000000001,-4.88222,8.07428,7.4559,-3.0082199999999997,10.76497,6.5276000000000005,2.39209
55,42,Mo,8.635092,-0.32026600000000005,96.906016903,15.97547,16.46269,-2.84757,-1.4241400000000002,-9.39482,-9.79437,6.82113,9.23085,-9.738850000000001,9.95237,3.68843,5.37103
54,43,Tc,8.623725,-1.103873,96.906360723,17.34572,15.016110000000001,-2.4365,-4.62687,-8.91058,-9.215370000000002,9.474110000000001,5.718520000000001,-16.398580000000003,11.19824,6.0537,4.79104
53,44,Ru,8.604279,-3.523,96.907545779,18.80544,12.98663,-1.7384000000000002,-8.31471,-4.61465,-14.50415,8.1115,7.587890000000001,-25.667,10.611600000000001,2.9018200000000003,7.93991
52,45,Rh,8.559894,-4.791709,96.911327876,20.399580000000004,11.15415,-1.4163599999999998,-11.771709999999999,-4.06489,-14.48546,10.98115,3.80615,-35.408,11.571,4.850090000000001,7.2071700000000005
51,46,Pd,8.50243,-6.98,96.916471987,23.982580000000002,8.92604,-3.01405,-17.352,0.98556,-21.36552,9.69375,5.40709,,11.24557,-0.03417,10.42415
50,47,Ag,8.422405000000001,-10.372,96.923965326,27.371000000000002,7.06318,-4.2389600000000005,-23.636,1.57291,-23.324,14.385520000000001,1.93141,,9.85086,0.14048,7.72817
49,48,Cd,8.307,-13.264000000000001,96.9351,29.966,5.066,-3.878,,8.44,-30.635,12.952,3.231,,9.854000000000001,-3.18,11.295
48,49,In,8.163,,96.94934,,2.17,-3.347,,10.033,,17.37,-1.094,,10.152000000000001,-2.185,10.866
63,35,Br,8.08,16.061,97.969672,6.23,,,26.119,,11.102,2.266,,44.044000000000004,,7.074,
62,36,Kr,8.236,10.058,97.95243,7.3740000000000006,,-9.933,22.112000000000002,,6.1370000000000005,4.9590000000000005,17.545,36.976,4.563,4.324,-8.205
61,37,Rb,8.330729,12.053958000000002,97.941632317,9.15743,30.784,-9.394,17.92563,-27.603,6.1409899999999995,3.92133,14.234620000000001,29.155450000000002,9.42134,6.65382,-4.952
60,38,Sr,8.445745,5.8716729999999995,97.92869186,9.64158,27.92137,-7.50025,14.8636,-26.288580000000003,1.627,5.9129700000000005,15.19294,21.69287,5.64205,4.33244,-4.61779
59,39,Y,8.497677,8.991932,97.92238836,10.10152,25.51837,-6.15691,11.22982,-21.064610000000002,2.5765700000000002,4.24467,11.00229,14.13743,11.340190000000002,7.68883,-0.75688
58,40,Zr,8.581448,2.2378899999999997,97.912735124,11.9905,22.94049,-4.8659099999999995,6.8292600000000006,-19.994220000000002,-3.75225,6.41536,12.45426,6.938149999999999,7.75999,4.7861899999999995,-0.52076
57,41,Nb,8.596301,4.591373,97.91033265,14.06442,19.76664,-3.59805,2.90761,-14.69215,-4.05122,5.99014,7.87091,-0.34939,12.62505,6.9994,3.3306500000000003
56,42,Mo,8.635168,-1.683766,97.905403608,15.46373,17.25507,-3.27157,0.10889,-12.462280000000002,-8.962860000000001,8.6426,9.79917,-6.795,8.19765,3.5343400000000003,3.19037
55,43,Tc,8.610004000000002,1.792653,97.907211205,16.75321,15.40733,-2.48806,-3.257,-8.1154,-8.38297,7.279100000000001,6.17649,-13.36579,13.07348,6.1437100000000004,6.00045
54,44,Ru,8.620313,-5.049653,97.905286713,18.287119999999998,14.00792,-2.23571,-6.90388,-7.96914,-13.698620000000002,10.17562,8.2894,-20.58844,8.30758,2.66054,5.1334
53,45,Rh,8.560803,-1.8542290000000001,97.91070774,19.630119999999998,11.931510000000001,-1.4418,-10.10879,-3.23975,-13.44068,8.64897,4.34362,-29.279,13.615969999999999,5.1466,8.492540000000002
52,46,Pd,8.533899,-8.25456,97.912698337,21.2802,9.81854,-1.1622999999999999,-13.68456,-2.4893899999999998,-18.56645,11.586450000000001,6.012390000000001,,9.077549999999999,1.88369,7.78317
51,47,Ag,8.441686,-5.43,97.921559972,24.69741,7.95664,-2.58372,-19.17,2.24217,-20.684,10.31189,2.54954,,13.8278,1.76354,10.92059
50,48,Cd,8.378295,-13.74,97.927389317,28.206,6.03095,-3.95906,,2.8804600000000002,-28.518,15.254,4.09954,,7.58603,-3.1750000000000003,7.975890000000001
49,49,In,8.23,,97.94214,32.148,3.963,-3.912,,9.641,,14.778,0.731,,12.387,-2.402,11.347
63,36,Kr,8.178,12.362,98.95839,7.479,,-10.725,23.762,,7.538,2.52,17.798000000000002,38.861000000000004,6.007000000000001,4.268,
62,37,Rb,8.2953,11.400258000000001,98.94511919199999,8.74464,31.644000000000002,-9.775,19.52868,-30.16,7.23064,4.82331,14.099,31.2142,7.01316,6.82259,-7.311
61,38,Sr,8.402552,8.128424,98.932880511,10.08258,29.67585,-8.7874,15.099219999999999,-25.499,1.70206,4.16961,15.44123,23.448700000000002,6.70854,3.697,-3.7953200000000002
60,39,Y,8.476754999999999,6.970792,98.924154288,10.671040000000001,26.708630000000003,-7.18325,11.68552,-23.569650000000003,2.56557,6.42637,11.515690000000001,16.678040000000003,8.64244,7.13839,-3.64907
59,40,Zr,8.539264,4.714724,98.916670835,10.820590000000001,23.6171,-4.92598,8.34948,-18.48648,-2.1673400000000003,4.4052299999999995,12.61481,10.004760000000001,9.21161,5.57933,0.9499400000000001
58,41,Nb,8.578985000000001,3.6347579999999997,98.911609371,12.872200000000001,20.79186,-3.5514099999999997,4.992520000000001,-17.32953,-2.29069,6.882060000000001,8.3376,3.24596,11.31813,7.967560000000001,1.64696
57,42,Mo,8.607797000000001,1.357764,98.907707298,14.568040000000002,17.60538,-2.7350700000000003,1.65528,-11.97236,-7.60921,5.92544,9.73447,-3.7874499999999998,10.34648,4.496770000000001,5.11515
56,43,Tc,8.613610000000001,0.29751900000000003,98.906249678,16.24607,16.30003,-2.96652,-1.74656,-11.092229999999999,-7.17432,8.96697,6.500859999999999,-10.61539,10.927629999999999,6.3310699999999995,3.9213600000000004
55,44,Ru,8.608712,-2.044081,98.905930278,17.64746,14.658629999999999,-2.3384400000000003,-5.44273,-6.79838,-12.52149,7.47184,8.482149999999999,-17.69426,10.30985,3.06031,6.8159
54,45,Rh,8.580163,-3.398649,98.90812469,19.12638,12.93482,-1.9848800000000002,-8.86883,-6.43807,-12.33164,10.47741,4.64541,-24.205000000000002,11.25006,5.36313,5.88674
53,46,Pd,8.537930000000001,-5.470178,98.91177329,20.51944,10.64004,-1.14982,-12.25153,-1.24676,-17.187549999999998,8.93299,6.29642,-34.239,11.12571,2.36912,9.544120000000001
52,47,Ag,8.474774,-6.781350000000001,98.917645768,22.029259999999997,8.692860000000001,-0.79678,-15.336,-0.82624,-17.147380000000002,11.717379999999999,2.6804699999999997,,11.80418,4.3349899999999995,8.62165
51,48,Cd,8.398373,-8.555,98.924925847,25.62,6.70322,-2.3901399999999997,-21.987000000000002,4.10088,-24.106,10.36602,4.1536800000000005,,11.605530000000002,-0.55543,11.89868
50,49,In,8.304,-13.432,98.93411,30.329,5.128,-4.204,,4.401,,15.551,1.029,,9.789,-0.9390000000000001,8.782
49,50,Sn,8.16,,98.94853,,2.068,-3.738,,12.403,,,1.337,,9.956,-5.19,13.275
64,36,Kr,8.14,11.195,99.96236999999999,6.884,,,24.769000000000002,,7.998,4.364,,41.325,3.9090000000000003,3.867,
63,37,Rb,8.24432,13.573838,99.950351731,8.02055,32.575,-10.509,21.080330000000004,,8.20302,3.19724,14.777000000000001,33.55034,8.775,6.04048,-6.545
62,38,Sr,8.372234,7.506493000000001,99.935779615,9.54043,30.088,-9.16614,16.55653,-28.35,2.75761,5.37082,15.98873,26.37212,5.25905,3.56229,-6.75101
61,39,Y,8.439476,9.050041,99.927721063,11.17525,27.536189999999998,-8.39796,12.47,-23.495220000000003,2.2219,4.74889,12.09497,18.69355,9.806510000000001,6.11811,-3.1618600000000003
60,40,Zr,8.522153000000001,3.419963,99.918005444,11.233360000000001,24.53227,-5.8782,9.81559,-21.14501,-2.11341,6.82814,13.01658,12.849950000000002,6.62815,4.60804,-2.14958
59,41,Nb,8.548529,6.395626,99.914333963,12.41544,22.080560000000002,-3.88642,6.22355,-16.43654,-1.89862,5.53338,9.46575,5.79373,12.200120000000002,8.00932,1.9704300000000001
58,42,Mo,8.604662000000001,-0.17208,99.907467976,14.21969,19.48426,-3.1790900000000004,3.0343600000000004,-15.861379999999999,-6.9364799999999995,8.29424,11.14665,-0.9802500000000001,8.04238,4.27681,2.39604
57,43,Tc,8.595118000000001,3.206444,99.907652711,15.731370000000002,17.07429,-2.8430400000000002,-0.42982,-10.97458,-6.466880000000001,6.7644,7.33982,-7.88299,12.80583,6.3878,5.23123
56,44,Ru,8.619359000000001,-3.6362620000000003,99.904210452,17.14516,15.68936,-2.85743,-4.01461,-10.54626,-11.71741,9.67332,9.1885,-15.03279,7.91562,2.8610900000000004,3.9637
55,45,Rh,8.575172,-0.378348,99.908114141,18.55856,13.73686,-2.19441,-7.45317,-5.55223,-11.479790000000001,8.081140000000001,5.254720000000001,-21.278150000000004,13.34454,5.393479999999999,7.2797
54,46,Pd,8.563566000000002,-7.074819000000001,99.908520315,20.03444,11.56586,-1.55732,-11.018180000000001,-4.87637,-16.57162,11.10144,6.92045,-27.929810000000003,8.67323,2.24883,6.554180000000001
53,47,Ag,8.484994,-3.9433629999999997,99.916115445,21.214180000000002,9.540700000000001,-0.8751599999999999,-13.82499,0.15437,-16.27815,9.4968,3.2442800000000003,,13.89382,4.53194,10.10599
52,48,Cd,8.437736999999998,-9.881624,99.92034882,22.70082,7.451560000000001,-0.43611,-16.91162,0.69908,-20.89,12.334790000000002,4.77109,,9.58262,1.4953,9.25765
51,49,In,8.331097,-7.03,99.93095718000001,26.559,5.8245000000000005,-2.22625,,5.11053,-24.44,11.008000000000001,1.67082,,14.03425,1.0050000000000001,12.159270000000001
50,50,Sn,8.252974,,99.938504196,,4.2245,-4.135,,5.35918,,17.41,3.196,,7.324,-5.229,8.817
65,36,Kr,8.081,13.717,100.96873,6.511,,,26.197,,9.048,2.1470000000000002,,44.038000000000004,,3.987,
64,37,Rb,8.209,12.48,100.954004,7.8660000000000005,,-11.214,22.216,,8.905,4.6690000000000005,15.082,36.047000000000004,6.625,6.33,-8.948
63,38,Sr,8.32474,9.736094999999999,100.940606266,8.94614,31.143,-10.32633,17.84105,-27.562,3.9311700000000003,3.57532,16.36681,28.195040000000002,6.50704,3.90829,-5.367
62,39,Y,8.413390999999999,8.104955,100.930154138,10.55381,28.5178,-8.96678,13.83049,-26.10291,3.24512,5.80492,12.52907,21.28359,8.17121,6.22616,-5.04545
61,40,Zr,8.485892,5.725534,100.92145311,11.68797,25.2225,-7.00942,10.35399,-20.63402,-1.43987,4.85984,13.12753,14.79216,8.19467,3.99287,-1.0964500000000001
60,41,Nb,8.534835,4.628457999999999,100.915306496,12.698780000000001,22.81961,-5.194979999999999,7.453100000000001,-18.85307,-0.76978,7.16541,9.80302,8.52093,9.43993,7.259270000000001,-0.95031
59,42,Mo,8.572915000000002,2.824645,100.910337641,13.69248,20.47727,-3.0021999999999998,4.43816,-14.43148,-5.57032,5.3982399999999995,11.01152,1.9121800000000002,9.526200000000001,4.8687,3.41316
58,43,Tc,8.593136000000001,1.61352,100.90730526,15.159370000000001,18.58719,-3.16373,1.06782,-13.83616,-5.1885200000000005,8.394969999999999,7.44054,-5.01022,10.33631,6.63543,2.82641
57,44,Ru,8.601365,-0.545697,100.905573075,16.475369999999998,16.56596,-2.83834,-2.52598,-9.05406,-10.4383,6.80204,9.22614,-12.12166,10.080549999999999,3.33815,5.80426
56,45,Rh,8.588216000000001,-1.9802840000000002,100.906158905,17.97375,14.6625,-2.61291,-6.07804,-8.68044,-10.270959999999999,9.892610000000001,5.474,-18.799,10.923770000000001,5.6765,4.666189999999999
55,46,Pd,8.560864,-4.097759,100.908284828,19.39212,12.38469,-1.7365,-9.59568,-3.49371,-15.36549,8.29067,7.12998,-25.12651,10.859969999999999,2.60713,8.439129999999999
54,47,Ag,8.512546,-5.497917999999999,100.912683953,20.76454,10.331010000000001,-1.16174,-12.721,-3.0322199999999997,-15.21109,11.26773,3.4105700000000003,,11.55908,4.8506599999999995,7.487229999999999
53,48,Cd,8.450365,-7.223,100.918586211,22.047970000000003,8.23175,-0.45553,-15.53083,2.08735,-19.5948,9.713180000000001,4.98747,,11.58682,2.0940100000000004,11.13092
52,49,In,8.371,-8.308,100.92634,23.38,6.479,-0.213,,2.235,-19.402,12.372,1.708,,12.028,3.887,10.099
51,50,Sn,8.281102,,100.935259244,28.504,4.952439999999999,-2.277,,6.6000000000000005,,11.093969999999999,3.2816199999999998,,11.781,-1.545,12.97719
65,37,Rb,8.157,14.452,101.95952,7.602,,-11.881,23.466,,9.547,2.9330000000000003,15.868,38.598,8.056000000000001,5.917,
64,38,Sr,8.29122,9.013873,101.94400468,8.481040000000002,31.685000000000002,-10.273,19.428400000000003,-30.32,4.83038,4.90571,16.603,31.40676,4.79857,3.82589,-7.753
63,39,Y,8.371922000000001,10.414530000000001,101.934327889,9.98842,29.50405,-9.228950000000001,15.13137,-25.617,3.92146,4.18349,13.13724,23.399700000000003,9.35853,6.21228,-4.40563
62,40,Zr,8.466355,4.716837000000001,101.923147431,11.3529,26.34475,-7.58952,11.97835,-23.55177,-0.7675299999999999,6.4930699999999995,13.81568,17.51873,6.4505,3.92617,-3.4199
61,41,Nb,8.504928,7.2615169999999996,101.918083697,12.649780000000002,23.55509,-6.43468,8.26833,-18.53251,-0.85591,5.48437,10.42756,10.47877,10.783700000000001,6.18013,-0.008320000000000001
60,42,Mo,8.56845,1.006817,101.910288138,13.51567,21.76657,-4.70427,5.54038,-17.68908,-5.29278,8.11743,11.963540000000002,4.33711,6.94214,3.63333,-0.29904000000000003
59,43,Tc,8.57065,4.533558,101.909207275,14.69457,19.35342,-3.4732,2.21044,-12.970360000000001,-4.6860800000000005,6.299600000000001,8.341899999999999,-2.32619,12.330950000000001,6.26128,3.4088600000000002
58,44,Ru,8.607427,-2.323119,101.9043403,16.02168,17.49135,-3.4153800000000003,-1.20327,-12.875459999999999,-9.76534,9.21964,10.05081,-9.44675,7.625310000000001,3.08548,2.51006
57,45,Rh,8.576981,1.119853,101.90683427,17.334830000000004,15.34031,-2.7760300000000004,-4.536630000000001,-7.72769,-9.4225,7.442220000000001,6.1141700000000005,-16.08843,13.15488,5.70612,6.19095
56,46,Pd,8.580290000000002,-5.656479999999999,101.905632058,18.83303,13.25372,-2.10323,-8.24348,-7.23403,-14.640110000000002,10.54236,7.77973,-22.96829,8.398760000000001,2.54218,5.368609999999999
55,47,Ag,8.517164000000001,-2.587,101.91170454,20.251369999999998,11.23351,-1.4964000000000002,-11.55181,-2.12325,-14.48155,8.98363,4.10353,,13.67689,4.80001,8.981010000000001
54,48,Cd,8.484131,-8.964807,101.914481799,21.60773,9.02485,-0.76363,-14.72481,-1.51653,-19.117,11.894549999999999,5.6142900000000004,,9.18907,1.9168399999999999,8.16936
53,49,In,8.388571,-5.76,101.924105916,22.52455,7.13487,-0.053380000000000004,,3.35052,-18.460580000000004,10.152000000000001,2.1474,,14.21052,4.10029,11.66399
52,50,Sn,8.324430000000001,,101.93028953,23.79455,5.31823,0.27662000000000003,,3.6126,,12.70058,3.61,,10.08889,1.305,10.64264
66,37,Rb,8.117,13.814,102.96392,6.906000000000001,,,24.849,,10.48,3.973,,41.42,6.23,6.308,
65,38,Sr,8.243,11.035,102.94909,8.24,32.872,-11.088000000000001,20.393,,5.68,3.334,17.004,33.538000000000004,6.133,3.689,-6.724
64,39,Y,8.342638,9.357759,102.937243208,9.539209999999999,30.191,-9.76135,16.571099999999998,-28.04,5.05882,5.35571,13.58724,26.14629,7.57814,6.22738,-6.5641099999999994
63,40,Zr,8.425895,7.213337000000001,102.92719724,10.792010000000001,27.068369999999998,-7.718850000000001,13.145340000000001,-22.945,0.41789,4.29894,13.93113,19.45184,7.95647,4.37612,-2.34803
62,41,Nb,8.488331,5.931999,102.919453403,12.27981,24.54561,-6.8037600000000005,9.5752,-21.14446,0.46607,6.79544,10.729930000000001,13.00304,8.848090000000001,6.21282,-2.0548699999999998
61,42,Mo,8.538328,3.6431970000000002,102.91308514,13.58336,22.37265,-5.764970000000001,6.3065,-16.66193,-4.45911,5.46593,11.9451,6.49652,8.64163,3.7007800000000004,1.0631700000000002