N,Z,element,be_per_a,beta_decay_energy,atomic_mass,s2n,s2p,qa,q2b,qep,qbn,s1n,s1p,q4b,qda,qpa,qna
61,57,La,8.113,,117.946795,25.057000000000002,2.095,2.697,,9.644,,11.161,-0.609,,15.731,4.324,15.786
76,43,Tc,8.128,12.193,118.95666,8.132,,-11.442,22.452,,8.818,4.6530000000000005,15.030000000000001,38.275,6.51,5.993,
75,44,Ru,8.224,10.259,118.94357,9.217,30.972,-10.24,18.844,-27.223,4.252,3.376,16.064,31.413,6.5280000000000005,3.7560000000000002,-5.418
74,45,Rh,8.303394,8.585108,118.932556952,10.06806,29.019000000000002,-8.927719999999999,15.82297,-26.322,4.49463,6.00665,12.852,24.87649,7.37788,6.11017,-5.721
73,46,Pd,8.368964,7.237863000000001,118.923340459,11.126059999999999,26.49598,-7.64308,12.56917,-21.437,0.07457,4.09047,13.80941,18.65712,8.200280000000001,4.19228,-1.69259
72,47,Ag,8.423212,5.331303,118.915570293,12.60639,24.326330000000002,-6.8408500000000005,9.05352,-21.04728,-0.01544,7.16329,10.54599,10.82841,8.48952,6.04992,-2.2632399999999997
71,48,Cd,8.461438000000001,3.722212,118.909846903,13.70131,22.13053,-5.975600000000001,6.08795,-15.87729,-4.820180000000001,5.34674,11.712250000000001,3.20411,8.915750000000001,3.42964,1.5009700000000001
70,49,In,8.486143,2.3657420000000005,118.905850944,14.89887,20.095209999999998,-5.14154,1.7749000000000001,-15.43446,-4.1177399999999995,8.54239,8.286610000000001,-3.9337500000000003,9.42991,5.87725,0.48977
69,50,Sn,8.499449,-0.590843,118.903311216,15.80991,18.22457,-4.40546,-2.88384,-10.65235,-10.14013,6.48349,10.12578,-11.270610000000001,9.58883,3.0487800000000003,4.29386
68,51,Sb,8.48791,-2.293,118.903945512,16.97727,15.10908,-2.36275,-5.70865,-9.53494,-9.84891,9.549280000000001,5.1103000000000005,-17.169130000000003,11.63438,6.915850000000001,4.42197
67,52,Te,8.462066,-3.4156500000000003,118.906407148,18.2284,11.36137,0.42774,-8.38677,-2.8173000000000004,-14.281450000000001,7.55591,6.47394,-22.59109,12.169170000000001,4.50503,9.991190000000001
66,53,I,8.426789000000001,-4.9711170000000005,118.910074,19.47209,9.70393,0.81296,-11.46048,-3.05829,-13.757790000000002,10.8658,3.35792,-28.976,12.040690000000001,6.36749,8.70302
65,54,Xe,8.378441,-6.489361,118.915410713,20.75171,8.276940000000002,0.84343,-14.20433,1.6132000000000002,-18.45636,8.78667,5.1123400000000006,-34.854,12.35247,3.5618800000000004,12.12095
64,55,Cs,8.317334,-7.714965,118.92237733,21.95459,6.44692,1.6078299999999999,-17.516000000000002,1.37703,-18.022000000000002,11.967,1.5149700000000001,,12.591090000000001,5.605729999999999,10.833590000000001
63,56,Ba,8.245928,-9.801,118.930659686,23.274970000000003,4.98269,1.64175,-20.650000000000002,6.2,-23.101,10.307,3.46969,,12.613809999999999,2.317,14.103040000000002
62,57,La,8.157,-10.849,118.941181,24.461000000000002,2.874,2.485,,6.331,,13.301,-0.276,,13.379,4.654,12.899000000000001
61,58,Ce,8.059000000000001,,118.952828,,1.061,2.6550000000000002,,11.125,,,1.669,,13.241,1.569,16.286
77,43,Tc,8.087,14.494,119.96187,7.871,,,23.297,,8.975,3.218,,40.134,7.823,5.516,
76,44,Ru,8.201,8.803,119.94631,8.895,31.96,-10.937,20.268,,4.74,5.519,16.93,33.945,4.488,3.234,-8.196
75,45,Rh,8.268,11.466000000000001,119.93686,10.07,29.603,-9.784,16.837,-25.733,4.522,4.063,13.539,26.914,9.156,5.539,-4.7860000000000005
74,46,Pd,8.357085,5.371451,119.924551258,11.033940000000001,27.598,-8.63606,13.677299999999999,-25.005,0.2944,6.9434700000000005,14.74623,20.81832,5.31822,3.48138,-5.14378
73,47,Ag,8.395327,8.305852999999999,119.918784767,12.24034,25.34198,-7.3403,10.076870000000001,-20.11768,0.25425000000000003,5.077050000000001,11.53257,12.76626,10.44805,5.63703,-1.10773
72,48,Cd,8.458022999999999,1.7710150000000002,119.909868067,13.39835,23.14655,-6.5506400000000005,7.1410100000000005,-19.83842,-4.32939,8.0516,12.60056,5.41063,6.30724,3.0887100000000003,-1.8864800000000002
71,49,In,8.466262,5.37,119.907966805,14.642790000000002,20.75252,-5.6106300000000005,2.68939,-14.37157,-3.73466,6.10041,9.040270000000001,-1.9753800000000001,11.68408,5.554069999999999,2.1000500000000004
70,50,Sn,8.504492,-2.6806080000000003,119.902201873,15.58815,18.97467,-4.8108,-1.7303800000000003,-14.41027,-9.69551,9.10466,10.68806,-8.92595,6.84065,2.70873,0.96642
69,51,Sb,8.475635,0.950226,119.905079624,16.56418,15.76749,-2.59293,-4.664770000000001,-8.00745,-9.3079,7.0149,5.64171,-14.52912,13.9459,6.84404,6.17168
68,52,Te,8.477034,-5.615,119.904059514,17.814040000000002,12.29307,-0.26693,-7.19556,-6.59194,-13.673770000000001,10.258120000000002,7.18278,-20.47935,9.339030000000001,4.13561,6.67617
67,53,I,8.423722,-1.5805630000000002,119.910087465,18.92457,10.33471,0.64425,-9.86435,-1.56778,-13.02989,8.05877,3.86078,-26.183,14.6544,6.20648,10.532950000000001
66,54,Xe,8.404031000000002,-8.283785,119.91178427,20.236,9.053780000000001,0.67162,-13.28378,-2.2802100000000003,-17.938689999999998,11.44933,5.69586,-32.572,9.50943,3.12771,8.56939
65,55,Cs,8.328479999999999,-5.0,119.920677279,21.62191,7.49553,1.1786800000000002,-16.319,2.58792,-17.36987,9.6549,2.3832,,14.90122,5.16075,12.19384
64,56,Ba,8.280294,-11.319,119.926045,22.677,5.38752,1.73317,-19.288,2.6168,-22.17,12.36987,3.87256,,10.231530000000001,2.46851,10.943100000000001
63,57,La,8.179,-7.97,119.938196,24.153000000000002,3.739,2.048,,7.446,-21.701,10.852,0.269,,15.495000000000001,4.752,14.569
62,58,Ce,8.107,,119.946752,,1.824,2.555,,7.7010000000000005,,13.731,2.1,,10.671,1.735,13.504
78,43,Tc,8.056000000000001,13.267,120.965883,7.551,,,24.47,,10.161,4.333,,42.623,,5.715,
77,44,Ru,8.159,11.203,120.95164,8.625,,-11.302,21.135,,5.696,3.106,16.818,36.027,6.035,3.607,-6.7700000000000005
76,45,Rh,8.245239,9.932201,120.939613,9.56997,30.457,-10.293000000000001,18.15269,-28.021,5.958600000000001,5.507,13.527000000000001,29.58585,7.025,5.8740000000000006,-6.814
75,46,Pd,8.320858000000001,8.220492,120.928950343,10.91706,28.196,-9.117379999999999,14.8915,-23.459,1.3978599999999999,3.9736,14.657,23.01494,7.35127,3.5691900000000003,-3.2760000000000002
74,47,Ag,8.38233,6.671005,120.920125282,11.899690000000001,26.157970000000002,-7.930359999999999,11.43315,-22.877,1.48322,6.822640000000001,11.41174,15.1975,7.715890000000001,5.8499799999999995,-3.86896
73,48,Cd,8.430995999999999,4.762148,120.912963663,13.23939,24.24387,-7.074260000000001,8.12344,-18.08275,-3.41677,5.18779,12.711290000000002,7.47168,8.28275,3.34402,-0.03868
72,49,In,8.463887000000001,3.361291,120.907851286,14.27933,21.768150000000002,-6.07888,3.76435,-17.47344,-2.80892,8.17892,9.16759,0.41548,8.8519,5.72972,-0.63578
71,50,Sn,8.485201,0.403057,120.904242792,15.27488,19.79814,-5.20379,-0.65176,-12.52888,-8.85082,6.17021,10.75787,-6.71628,9.21282,2.895,3.15078
70,51,Sb,8.482066000000001,-1.054819,120.903810093,16.26878,16.47898,-3.0822,-3.34887,-11.16092,-8.30365,9.253879999999999,5.79092,-12.49799,11.175510000000001,6.91659,3.27429
69,52,Te,8.466883,-2.294053,120.904942488,17.50696,13.05842,-0.57267,-6.064520000000001,-4.7361,-12.86383,7.24883,7.41671,-17.80067,11.639479999999999,4.31477,8.75375
68,53,I,8.441458,-3.7704630000000003,120.907405255,18.62855,11.35521,-0.03683,-9.149120000000002,-5.12266,-12.15034,10.569780000000002,4.17243,-24.061,11.640540000000001,6.30919,7.39117
67,54,Xe,8.403832000000001,-5.378654000000001,120.911453014,19.82921,9.87775,0.18950999999999998,-11.73615,-0.40197000000000005,-16.66366,8.37988,6.016970000000001,-29.791,11.99535,3.35412,10.862
66,55,Cs,8.352914,-6.357495,120.917227238,20.93991,7.91474,0.90883,-14.912,-0.6383200000000001,-16.28501,11.28501,2.21888,-35.681,12.40289,5.84078,9.515120000000001
65,56,Ba,8.293906999999999,-8.555,120.924052289,22.29738,6.52837,1.0155800000000001,-18.055,4.13862,-21.246000000000002,9.927520000000001,4.14517,,12.27102,2.5285900000000003,12.980620000000002
64,57,La,8.217,-9.5,120.933236,23.543,4.463,1.8780000000000001,-20.769000000000002,4.409,-20.661,12.692,0.591,,13.111,5.0280000000000005,11.866
63,58,Ce,8.132,-11.268,120.943435,24.892,2.678,2.343,,8.91,,11.161,2.4090000000000003,,12.81,1.734,15.311
62,59,Pr,8.032,,120.955532,,1.21,2.624,,8.859,,,-0.8896000000000001,,13.23,,13.785
78,44,Ru,8.135,9.93,121.95475,8.281,,-11.945,22.466,,6.029,5.174,17.659,38.462,4.079,3.085,
77,45,Rh,8.21,12.536,121.94409,9.408,31.14,-10.715,19.026,-27.589000000000002,6.031,3.9010000000000002,14.322000000000001,31.493000000000002,8.643,5.348,-6.062
76,46,Pd,8.305975,6.489948,121.930631694,10.47874,29.182000000000002,-9.781,15.99621,-26.858,1.7153399999999999,6.5051499999999995,15.655000000000001,25.32517,4.909,3.07069,-6.406
75,47,Ag,8.352758,9.506264999999999,121.923664448,11.59724,26.87,-8.643559999999999,12.46663,-22.14495,1.8964,4.7746,12.21275,17.22926,9.88475,5.165850000000001,-2.63691
74,48,Cd,8.424266,2.960368,121.913459052,12.797649999999999,24.910259999999997,-7.648540000000001,9.328959999999999,-21.71902,-2.84772,7.609859999999999,13.498520000000001,9.70209,5.74993,2.89745,-3.5580700000000003
73,49,In,8.442118,6.368592,121.910280966,13.98701,22.49918,-6.44387,4.762630000000001,-16.45889,-2.44679,5.80808,9.787889999999999,2.50772,11.09542,5.2683800000000005,0.71943
72,50,Sn,8.487907,-1.605963,121.903444001,14.9856,20.561919999999997,-5.66461,0.37313,-16.15648,-8.41233,8.815389999999999,11.39433,-4.58636,6.49784,2.622,-0.31786000000000003
71,51,Sb,8.468331000000001,1.9790889999999999,121.905168074,16.06024,17.184939999999997,-3.53208,-2.2549099999999997,-9.78837,-7.86119,6.80637,6.42708,-10.190610000000001,13.473799999999999,6.59371,5.0103100000000005
70,52,Te,8.47814,-4.234,121.903043434,17.08911,13.794030000000001,-1.08652,-4.95948,-8.40617,-12.13433,9.84027,8.00311,-15.70552,8.814110000000001,4.02377,5.39696
69,53,I,8.437023,-0.725483,121.90758882,18.470110000000002,12.240639999999999,-0.5091600000000001,-7.9357,-3.7691100000000004,-11.670790000000002,7.90033,4.823930000000001,-21.537,13.998330000000001,5.964770000000001,9.040120000000002
68,54,Xe,8.424664000000002,-7.210218,121.908367658,19.32519,10.56493,-0.08331000000000001,-10.746030000000001,-4.09845,-16.32396,10.94531,6.3925,-27.481,9.10882,3.27461,7.472600000000001
67,55,Cs,8.359151,-3.535815,121.916108145,20.39875,8.96971,0.40137,-13.602,0.81772,-15.47124,9.11374,2.95274,-33.365,14.73847,5.5137100000000006,11.26717
66,56,Ba,8.323756,-10.066,121.919904,21.86294,7.014460000000001,1.0452000000000001,-16.735,0.5830700000000001,-20.490000000000002,11.93542,4.79558,,9.9905,2.5601599999999998,9.83187
65,57,La,8.235,-6.6690000000000005,121.93071,23.116,5.2330000000000005,1.441,-19.764,5.2700000000000005,-19.925,10.424,1.087,,15.056000000000001,4.9110000000000005,13.408
64,58,Ce,8.174,-13.094,121.93787,24.416,3.563,2.056,,5.582,-24.523,13.255,2.972,,10.407,1.78,12.363
63,59,Pr,8.06,,121.951927,,1.788,2.356,,10.122,,11.429,-0.621,,15.531,4.025,15.656
79,44,Ru,8.093,12.280000000000001,122.960193,8.176,,,23.35,,6.929,3.001,,40.334,5.4110000000000005,3.302,
78,45,Rh,8.186,11.07,122.94701,9.252,32.158,-11.414,20.188,,7.1850000000000005,5.351,14.499,34.07,6.398000000000001,5.516,-8.196
77,46,Pd,8.270031000000001,9.118336,122.935126,10.390049999999999,29.961000000000002,-10.290000000000001,16.98444,-25.569,2.6050500000000003,3.8849,15.639000000000001,27.38644,6.53119,3.249,-4.771
76,47,Ag,8.337803,7.866103,122.925337062,11.287889999999999,27.87589,-9.150200000000002,13.88227,-24.757,2.99298,6.5132900000000005,12.220889999999999,19.675990000000002,7.34506,5.59603,-5.087
75,48,Cd,8.395395,6.016172,122.916892453,12.482990000000001,25.809790000000003,-8.43119,10.402000000000001,-20.086990000000004,-1.91276,4.87312,13.597040000000002,11.75798,7.69945,3.1013800000000002,-1.48773
74,49,In,8.437946,4.385828000000001,122.910433826,13.73701,23.60547,-7.2095,5.79372,-19.613220000000002,-1.56034,7.92893,10.106950000000001,4.51337,8.354280000000001,5.39106,-2.13245
73,50,Sn,8.467243,1.407888,122.905725446,14.76155,21.3203,-6.26403,1.35598,-14.492780000000002,-7.55213,5.94616,11.53241,-2.56748,8.7306,2.77624,1.7875699999999999
72,51,Sb,8.472328,-0.051913,122.904214016,15.76638,17.96604,-3.9497,-1.28034,-12.940299999999999,-6.980930000000001,8.96002,6.57171,-8.18042,10.684000000000001,6.7383500000000005,2.1507
71,52,Te,8.465546,-1.2284290000000002,122.904269747,16.76929,14.55283,-1.53205,-3.92346,-6.51979,-11.16301,6.929010000000001,8.12576,-13.5172,11.138969999999999,4.10966,7.57261
70,53,I,8.449198,-2.695027,122.90558852,17.83491,12.92135,-0.89446,-6.90008,-6.89733,-10.66007,9.93459,4.91824,-19.293,11.31258,6.288310000000001,6.120430000000001
69,54,Xe,8.420927,-4.205055000000001,122.90848174999999,18.910349999999998,11.281139999999999,-0.49244,-9.59375,-2.22321,-15.17526,7.96504,6.45721,-24.962,11.71355,3.3683400000000003,9.765690000000001
68,55,Cs,8.380379000000001,-5.388693,122.912996062,20.08395,9.37014,0.29697,-12.393,-2.25216,-14.506020000000001,10.9702,2.97764,-30.814,12.14815,5.99283,8.35574
67,56,Ba,8.330208,-7.0040000000000004,122.918781062,21.05275,7.75191,0.71454,-15.369,2.4110500000000004,-19.183,9.11733,4.79916,,12.15818,3.09774,12.163870000000001
66,57,La,8.267,-8.365,122.9263,22.603,6.127,1.229,-18.421,2.205,-18.849,12.179,1.331,,12.805,5.102,10.884
65,58,Ce,8.193,-10.056000000000001,122.93528,23.739,4.119,1.879,,7.034,-23.578,10.484,3.032,,12.615,2.148,14.249
64,59,Pr,8.104000000000001,,122.946076,24.951,2.618,2.1350000000000002,,7.024,,13.521,-0.355,,13.171000000000001,4.234,12.987
80,44,Ru,8.068,10.929,123.963542,7.953,,,24.429000000000002,,7.328,4.952,,42.741,,2.6830000000000003,
79,45,Rh,8.149000000000001,13.5,123.951809,8.952,,-11.797,21.311,,7.469,3.601,15.099,35.981,7.971,5.021,-7.463
78,46,Pd,8.252,7.8100000000000005,123.937316,9.916,30.818,-10.803,18.312,-28.599,3.087,6.031,16.319,29.844,4.401,2.724,-7.696
77,47,Ag,8.308655000000002,10.501538,123.928931229,11.23666,28.698,-9.811,14.67007,-24.129,3.1427300000000002,4.72337,13.059360000000002,21.42011,9.12683,4.84625,-4.3036
76,48,Cd,8.387035000000001,4.168529,123.917657363,12.23193,26.66345,-8.846540000000001,11.53252,-23.5609,-1.34264,7.358810000000001,14.44256,13.82365,5.11524,2.5652,-4.87294
75,49,In,8.414343,7.3639920000000005,123.913182263,13.44009,24.342029999999998,-7.64361,6.75005,-18.61109,-1.12534,5.51116,10.74499,6.49553,10.45298,5.06768,-0.82098
74,50,Sn,8.467421,-0.6139439999999999,123.905276692,14.43549,22.199759999999998,-6.7017500000000005,2.2911300000000003,-18.10898,-7.08144,8.48933,12.09281,-0.57277,6.0493500000000004,2.46584,-1.51397
73,51,Sb,8.45616,2.905073,123.905935789,15.42751,18.62545,-4.316800000000001,-0.25451,-11.47887,-6.51941,6.4675,7.09304,-5.88891,13.031889999999999,6.44107,3.86213
72,52,Te,8.473279,-3.159587,123.902817064,16.3535,15.16193,-1.85187,-2.8639,-9.99811,-10.65291,9.424479999999999,8.59022,-11.43555,8.52086,3.93906,4.31834
71,53,I,8.441488999999999,0.295686,123.906209021,17.42791,13.60831,-1.3728900000000002,-5.634399999999999,-5.43064,-10.18835,7.49332,5.482550000000001,-17.10712,13.65953,6.04382,7.88099
70,54,Xe,8.437565000000001,-5.930086,123.905891588,18.449080000000002,11.9249,-0.71835,-8.57165,-5.77823,-14.68909,10.48404,7.00666,-22.746000000000002,9.129850000000001,3.45408,6.53048
69,55,Cs,8.383432,-2.6415590000000004,123.912257798,19.72921,10.22882,-0.40326,-11.472719999999999,-1.0765799999999999,-14.1477,8.75901,3.7716,-28.580000000000002,14.33445,5.61371,10.16652
68,56,Ba,8.35582,-8.831165,123.915093629,20.62347,8.31274,0.65773,-14.174,-1.13005,-18.51,11.50614,5.335100000000001,-34.564,9.76579,2.8766100000000003,9.03761
67,57,La,8.278292,-5.343,123.924574275,21.858,6.69179,1.20511,-17.108,3.4960700000000005,-18.044,9.679,1.8926300000000003,,15.06114,5.35028,12.490120000000001
66,58,Ce,8.229000000000001,-11.765,123.93031,23.185,4.885,1.548,-20.39,3.45,-22.757,12.701,3.5540000000000003,,10.338000000000001,2.1390000000000002,11.475
65,59,Pr,8.128,-8.626,123.94294,24.514,3.186,1.994,,8.211,,10.992,0.154,,15.433,4.4030000000000005,14.686
64,60,Nd,8.052,,123.9522,,1.23,2.65,,8.472,,,1.585,,10.965,1.76,13.811
80,45,Rh,8.126,12.120000000000001,124.954911,8.783,,-12.645,22.52,,8.318,5.182,15.329,38.477000000000004,5.791,5.014,
79,46,Pd,8.216,10.4,124.9419,9.833,31.618000000000002,-11.498000000000001,19.228,-27.448,4.009,3.801,16.519000000000002,31.777,5.9510000000000005,2.824,-6.323
78,47,Ag,8.293314,8.828163,124.930735,11.11449,29.738,-10.69472,15.95687,-26.919,4.11042,6.39112,13.419,23.736340000000002,6.62062,4.96028,-6.7940000000000005
77,48,Cd,8.357681000000001,7.12871,124.921257577,12.07655,27.496290000000002,-9.59068,12.54828,-22.247,-0.5492100000000001,4.71774,14.43693,15.67488,6.91079,2.6220700000000003,-3.0855300000000003
76,49,In,8.408451999999999,5.419571,124.913604591,13.18909,25.50667,-8.498899999999999,7.779470000000001,-21.56564,-0.31393,7.67792,11.0641,8.3604,7.648180000000001,4.99962,-3.72429
75,50,Sn,8.445549999999999,2.359899,124.907786442,14.22283,23.06014,-7.247470000000001,3.1266,-16.48367,-6.34744,5.7335,12.31515,1.29701,8.24478,2.54042,0.3624
74,51,Sb,8.45817,0.7667,124.905252987,15.17484,19.40386,-4.84522,0.58093,-14.675040000000001,-5.802270000000001,8.70734,7.311050000000001,-4.16832,10.27071,6.54911,0.96287
73,52,Te,8.458045,-0.18577000000000002,124.9044299,15.993450000000001,15.78473,-2.25063,-1.82959,-8.07775,-9.72856,6.56897,8.6917,-9.35401,10.9119,4.17645,6.564760000000001
72,53,I,8.450299999999999,-1.6438240000000002,124.904629333,17.03611,14.19108,-1.6618,-4.74925,-8.505930000000001,-9.247100000000001,9.542790000000002,5.60085,-15.07772,11.04576,6.341310000000001,5.14457
71,54,Xe,8.43089,-3.1054299999999997,124.90639405,18.087310000000002,12.59917,-1.07279,-7.52442,-3.9570300000000005,-13.53336,7.60328,7.11662,-20.536,11.46115,3.7511300000000003,8.767479999999999
70,55,Cs,8.399788000000001,-4.418985,124.909727867,19.18694,10.72216,-0.26142000000000004,-10.32847,-4.01119,-13.06949,10.42793,3.7155,-26.148,11.87156,6.13108,7.63891
69,56,Ba,8.358178,-5.9094809999999995,124.914471843,20.156650000000003,8.998209999999998,0.38710000000000006,-13.011000000000001,0.70348,-17.481669999999998,8.65051,5.2266,-32.07,12.08549,3.3398499999999998,11.33241
68,57,La,8.304643,-7.102,124.920815932,21.251,7.29378,0.91793,-15.82,0.68288,-16.915,11.57219,1.9586800000000002,,12.60627,5.71351,10.03168
67,58,Ce,8.242,-8.718,124.92844,22.514,5.581,1.6620000000000001,-19.058,5.143,-21.578,9.813,3.688,,12.704,2.75,13.598
66,59,Pr,8.166,-10.341000000000001,124.937799,23.853,3.867,1.825,,5.03,-21.486,12.86,0.313,,13.057,4.798,12.25
65,60,Nd,8.077,,124.9489,,1.891,2.666,,10.028,,11.145,1.737,,13.341000000000001,2.044,15.921000000000001
81,45,Rh,8.088000000000001,14.56,125.959957,8.553,,,23.38,,8.749,3.371,,40.473,7.371,4.644,
80,46,Pd,8.197000000000001,8.82,125.944326,9.613,32.478,-12.135,20.397000000000002,,4.589,5.812,17.149,34.155,3.74,2.364,-9.134
79,47,Ag,8.261000000000001,11.576,125.934857,10.623000000000001,30.369,-11.025,17.093,-25.969,4.596,4.232,13.849,25.713,8.42,4.613,-5.674
78,48,Cd,8.346746999999999,5.516106,125.922429127,11.69776,28.445,-10.06556,13.75844,-25.426000000000002,0.14869,6.980020000000001,15.02584,17.80855,4.654140000000001,2.15533,-6.18066
77,49,In,8.384317,8.242332000000001,125.916507344,13.045340000000001,26.150720000000003,-9.091719999999999,8.620330000000001,-20.54195,0.05215,5.36742,11.713780000000002,10.13841,9.639569999999999,4.50533,-2.57843
76,50,Sn,8.443522999999999,0.378,125.907658836,13.923680000000001,23.89151,-7.82778,4.05011,-19.95612,-5.83028,8.19018,12.82741,3.13172,5.5657700000000006,2.27917,-2.95466
75,51,Sb,8.440314,3.672108,125.907253036,14.91563,20.10098,-5.24541,1.5180799999999999,-13.20541,-5.44158,6.20828,7.78584,-2.0424100000000003,12.55176,6.287,2.68351
74,52,Te,8.463248,-2.154031,125.903310866,15.68266,16.4091,-2.54893,-0.91839,-11.45794,-9.29946,9.11369,9.098040000000001,-7.39545,8.265709999999999,4.02278,3.39723
73,53,I,8.439944,1.235644,125.905623313,16.68822,14.869010000000001,-2.00086,-3.5604899999999997,-6.9440100000000005,-8.789250000000001,7.14543,6.17731,-12.937850000000001,13.32481,6.124890000000001,6.95915