N,Z,element,be_per_a,beta_decay_energy,atomic_mass,s2n,s2p,qa,q2b,qep,qbn,s1n,s1p,q4b,qda,qpa,qna
60,43,Tc,8.566103,2.663304,102.909174008,14.40191,20.29032,-4.69344,3.42784,-15.58829,-3.56875,8.102310000000001,8.326780000000001,0.19882,9.62689,6.45321,0.83993
59,44,Ru,8.584365,0.764538,102.906314833,15.451690000000001,18.32516,-3.72199,0.19002000000000002,-10.99008,-8.55517,6.23205,9.98326,-6.615550000000001,9.78823,3.61783,4.57226
58,45,Rh,8.584192,-0.574519,102.905494068,16.76193,16.26506,-3.12876,-3.2290200000000002,-10.7478,-8.199850000000001,9.319709999999999,6.21424,-13.399120000000002,10.63721,6.05974,3.63564
57,46,Pd,8.571019,-2.6544980000000002,102.90611084,18.16769,14.077020000000001,-2.25672,-6.8055699999999995,-5.6397200000000005,-13.28182,7.6253400000000005,7.96284,-20.4846,10.666030000000001,2.9979899999999997,7.416600000000001
56,47,Ag,8.537651,-4.151075,102.90896056,19.610950000000003,11.968219999999999,-1.64631,-10.1701,-5.30834,-13.21432,10.62732,4.18849,-28.624000000000002,11.340250000000001,5.27414,6.43484
55,48,Cd,8.489754000000001,-6.019026,102.913416923,20.957790000000003,9.79743,-0.89388,-13.679030000000001,-0.03742,-18.02805,9.06324,5.6939,,11.393559999999999,2.3504,10.207559999999999
54,49,In,8.423721,-7.66,102.919878613,22.161,7.87616,-0.34503,-18.454,0.32513,-17.76902,12.009020000000001,2.26187,,11.914670000000001,4.4260600000000005,9.15177
53,50,Sn,8.341757,-10.794,102.928101962,22.8096,5.71408,0.53362,,5.39813,,10.109020000000001,3.56668,,12.352,2.20444,12.86841
52,51,Sb,8.229000000000001,,102.93969,,2.142,2.773,,7.228,,,-1.468,,14.838000000000001,5.969,13.781
66,38,Sr,8.21,9.958,103.95265,8.09,,-11.479000000000001,21.618000000000002,,6.28,4.755,17.787,36.244,4.311,3.603,-9.332
65,39,Y,8.298,11.66,103.94196,9.033,30.935000000000002,-10.242,17.755,-27.745,5.68,3.678,13.931000000000001,28.44,8.806000000000001,6.125,-5.573
64,40,Zr,8.402377000000001,6.094952,103.929442315,10.27899,28.1427,-8.32807,14.62591,-25.591,1.23329,5.98004,14.55546,22.371650000000002,6.1599200000000005,4.2010000000000005,-4.75275
63,41,Nb,8.453459,8.530957,103.922899115,11.6571,25.223779999999998,-6.91653,10.68443,-20.65041,1.0703399999999998,4.86166,11.29265,15.14034,10.4795,6.211,-1.11161
62,42,Mo,8.527965,2.153476,103.913740756,12.926540000000001,23.340200000000003,-6.39745,7.74574,-19.823610000000002,-3.8174200000000003,7.4606200000000005,12.61027,9.04514,6.66538,3.40558,-1.53761
61,43,Tc,8.541148999999999,5.5922659999999995,103.911428905,14.073200000000002,20.77684,-5.13096,4.4559,-14.76374,-3.3075900000000003,5.970890000000001,8.83174,2.61301,11.77342,5.880560000000001,2.03445
60,44,Ru,8.587399,-1.136362,103.90542536,15.13191,19.107590000000002,-4.3276,1.2994,-14.42401,-8.13532,8.89986,10.780809999999999,-4.12733,7.18797,3.11294,1.07064
59,45,Rh,8.568949,2.435758,103.906645295,16.31866,16.96441,-3.3633200000000003,-1.8429000000000002,-9.64445,-7.57348,6.99896,6.9811499999999995,-10.77668,12.8579,5.86282,5.03165
58,46,Pd,8.584848000000001,-4.278654,103.904030401,17.63457,14.866610000000001,-2.59263,-5.42673,-9.41691,-12.66373,10.00923,8.652370000000001,-17.768060000000002,8.099020000000001,2.88137,4.20941
57,47,Ag,8.536183999999999,-1.148072,103.908623725,19.012400000000003,12.91108,-1.95024,-8.933790000000002,-4.37371,-12.53615,8.38508,4.94823,-25.94283,13.497530000000001,5.17974,7.94237
56,48,Cd,8.517622,-7.785716000000001,103.90985623,20.45132,10.64315,-1.18052,-12.341330000000001,-3.80016,-17.40711,11.38808,6.45466,,8.989120000000002,2.2300500000000003,7.11015
55,49,In,8.435236999999999,-4.555617000000001,103.91821454,21.63041,8.51391,-0.46962000000000004,-17.009040000000002,1.33106,-17.28139,9.62139,2.82002,,14.18783,4.51785,10.798110000000001
54,50,Sn,8.383911,-12.453427,103.923105197,22.8348,6.5453,0.14263,,1.7356,-23.52,12.72577,4.28343,,9.77864,1.851,9.85581
53,51,Sb,8.256644,,103.936474502,,3.05668,2.71444,,8.17,,11.067,-0.51,,16.47207,5.996060000000001,15.087
67,38,Sr,8.156,12.66,104.95855,7.331,,-11.908,22.854,,7.382000000000001,2.576,,38.727000000000004,5.7090000000000005,3.9610000000000003,
66,39,Y,8.269020000000001,10.194373,104.944959,8.95542,32.24,-10.85,18.64519,,6.38238,5.2780000000000005,14.453000000000001,31.01973,6.863,5.753,-7.917
65,40,Zr,8.358659,8.450816999999999,104.93401489,9.79203,28.62,-8.56474,15.87241,-24.647000000000002,2.28296,3.8119899999999998,14.69,24.469759999999997,7.70365,4.5725,-3.6590300000000004
64,41,Nb,8.431692,7.42159,104.924942564,11.02951,26.035919999999997,-7.279470000000001,12.374540000000001,-23.141000000000002,2.3630999999999998,6.16786,11.480459999999999,17.935689999999997,8.61059,6.5362100000000005,-3.09597
63,42,Mo,8.494923,4.952947,104.916975159,12.5191,24.09975,-6.596100000000001,8.59735,-18.90205,-2.9050100000000003,5.05849,12.8071,11.08075,8.40234,3.8314600000000003,-0.10303
62,43,Tc,8.534643,3.644402,104.911657952,13.82886,21.839360000000003,-5.823510000000001,5.56115,-17.76005,-2.2657,7.85796,9.229090000000001,4.78075,9.38139,6.140029999999999,-0.33914
61,44,Ru,8.5619,1.916752,104.907745525,14.80995,19.551759999999998,-4.83946,2.4834,-12.87349,-7.046460000000001,5.910100000000001,10.72002,-1.6006500000000001,9.380180000000001,3.50244,3.27797
60,45,Rh,8.572704,0.566646,104.905687806,15.96217,17.82532,-3.93156,-0.7804099999999999,-12.63677,-6.52745,8.96321,7.0445,-8.21067,10.12673,6.11925,2.36804
59,46,Pd,8.57065,-1.347052,104.905079487,17.103330000000003,15.72866,-2.88469,-4.08405,-7.611149999999999,-11.37275,7.0941,8.74751,-15.0799,10.324629999999999,3.22948,6.33495
58,47,Ag,8.550370000000001,-2.7369969999999997,104.906525607,18.41078,13.61707,-2.08334,-7.4302600000000005,-7.40046,-11.173770000000001,10.0257,4.9647,-23.05535,11.09716,5.69639,5.35888
57,48,Cd,8.516852,-4.693267,104.909463895,19.82486,11.45459,-1.32662,-10.99585,-2.2277,-16.22249,8.43678,6.50636,-31.522330000000004,11.17966,2.77691,9.215729999999999
56,49,In,8.464704,-6.30258,104.914502324,21.15062,9.41582,-0.73111,-15.62509,-1.8130899999999999,-16.08484,11.52922,2.96116,,11.72185,4.88317,8.25252
55,50,Sn,8.397228,-9.322510000000001,104.921268423,22.50804,7.26432,0.07355,-20.52648,3.3414200000000003,-22.235689999999998,9.78226,4.4443,,12.00541,2.2209499999999998,11.9681
54,51,Sb,8.300992,-11.203972,104.931276549,23.98,3.96083,2.173,,4.87821,,12.91318,-0.32259,,13.667910000000001,5.78346,12.3258
53,52,Te,8.186836,,104.943304508,,0.41686,5.0691999999999995,,11.52657,,,0.92686,,14.078000000000001,,17.76978
68,38,Sr,8.119,11.263,105.962651,6.827,,,23.76,,8.409,4.251,,41.344,,3.682,
67,39,Y,8.218,12.497,105.95056,8.132,,-10.771,20.150000000000002,,7.34,2.854,14.732000000000001,33.723,8.764,6.2330000000000005,-6.798
66,40,Zr,8.32845,7.65337,105.937144,8.96856,29.022000000000002,-8.8156,17.58454,-27.229,3.29425,5.156569999999999,14.5686,27.77324,6.2250000000000005,4.7716400000000005,-5.481
65,41,Nb,8.393271,9.93117,105.928927768,10.52698,26.717000000000002,-7.455100000000001,13.572870000000002,-22.221970000000002,3.06247,4.35912,12.02759,20.15927,10.23151,6.47603,-2.09938
64,42,Mo,8.479581,3.6416950000000003,105.918266218,11.927190000000001,24.988410000000002,-6.97174,10.188690000000001,-21.958759999999998,-1.9157600000000001,6.8687,13.507950000000001,13.773,6.39529,3.7582,-2.67279
63,43,Tc,8.506556,6.547,105.914356697,13.41541,22.53515,-5.896590000000001,6.586399999999999,-17.14964,-1.91305,5.55745,9.72805,7.16616,11.28455,6.0485,0.89885
62,44,Ru,8.56094,0.039404,105.907328203,14.37015,20.5512,-5.18208,3.5843000000000003,-16.27505,-6.5433,8.460049999999999,11.32211,0.80892,6.89103,3.1447,0.28385000000000005
61,45,Rh,8.553931,3.544901,105.907285901,15.545910000000001,18.43712,-4.21466,0.57976,-11.36151,-6.01606,6.5827,7.71711,-5.75449,12.44389,5.7686,3.8876399999999998
60,46,Pd,8.579992,-2.965145,105.903480293,16.655060000000002,16.38976,-3.2260100000000005,-2.77539,-11.26201,-10.90801,9.56096,9.34526,-12.553840000000001,7.762630000000001,2.98824,3.00604
59,47,Ag,8.544639,0.189755,105.906663507,17.96857,14.56098,-2.58398,-6.33425,-6.38011,-10.679860000000001,7.94286,5.81346,-20.46909,13.163530000000002,5.3788599999999995,6.735729999999999
58,48,Cd,8.539048000000001,-6.524004,105.906459797,19.30639,12.314969999999999,-1.6538800000000002,-9.778450000000001,-6.003220000000001,-15.56288,10.869620000000001,7.350270000000001,-28.91239,8.695120000000001,2.5346100000000003,5.97145
57,49,In,8.470120000000001,-3.2544470000000003,105.913463603,20.568099999999998,10.06962,-0.7863600000000001,-14.13484,-0.82627,-15.34146,9.038879999999999,3.56327,,14.07105,4.90754,9.840959999999999
56,50,Sn,8.432038,-10.880396000000001,105.916957396,21.86927,7.96325,-0.11891,-19.13394,-0.30882,-21.40952,12.087010000000001,5.00209,,9.53978,2.14296,8.94433
55,51,Sb,8.322012,-8.253544,105.928637982,23.442310000000003,4.86857,1.79668,,5.878310000000001,-21.7331,10.529129999999999,0.42427,,15.864559999999999,5.3633500000000005,13.805700000000002
54,52,Te,8.236767,,105.937498526,,1.1706400000000001,4.290220000000001,,7.82927,,13.47955,1.4932400000000001,,11.66468,2.823,14.39924
69,38,Sr,8.064,13.465,106.968975,6.432,,,25.48,,9.082,2.181,,43.652,,,
68,39,Y,8.182,12.015,106.95452,7.237,,-11.181000000000001,21.359,,8.114,4.383,14.863,36.386,6.957,6.606,
67,40,Zr,8.287073000000001,9.344121999999999,106.941621,9.057590000000001,30.347,-9.382,18.17187,-26.878,3.75235,3.90102,15.616,29.48282,7.60148,4.548,-4.627
66,41,Nb,8.367089,8.82775,106.931589672,9.95089,27.03139,-7.6911499999999995,15.026100000000001,-24.96,4.3393999999999995,5.59177,12.462790000000002,23.13989,8.45173,6.864310000000001,-4.013
65,42,Mo,8.44228,6.198354999999999,106.922112692,11.35705,25.66477,-7.1611400000000005,11.310950000000002,-21.29054,-0.84665,4.4883500000000005,13.637170000000001,15.82108,8.0748,4.1315100000000005,-1.1811
64,43,Tc,8.492897000000001,5.112598,106.915458485,12.602459999999999,23.4123,-6.14616,8.11379,-19.83553,-0.49801,7.04501,9.90436,9.65676,9.29803,6.46411,-1.2845
63,44,Ru,8.533366000000001,3.001191,106.909969885,14.07066,21.10331,-5.32676,4.51013,-15.016950000000001,-5.5712,5.610609999999999,11.37526,3.1277500000000003,9.13838,3.50499,2.1338600000000003
62,45,Rh,8.554103,1.508936,106.906747974,15.155090000000001,19.151560000000003,-4.68475,1.54297,-14.37645,-5.02749,8.57239,7.82945,-3.29944,9.78159,6.0960600000000005,1.28614
61,46,Pd,8.560894000000001,0.034031,106.905128064,16.09738,17.016090000000002,-3.53038,-1.3823800000000002,-9.33839,-9.50157,6.53643,9.29898,-9.86041,10.18941,3.4507600000000003,5.369470000000001
60,47,Ag,8.5539,-1.416409,106.905091531,17.47847,15.133370000000001,-2.7998800000000004,-4.84241,-9.33301,-9.34585,9.5356,5.78811,-17.75343,10.72202,5.8524899999999995,4.19908
59,48,Cd,8.533351000000001,-3.426,106.906612108,18.79906,13.15031,-1.9579900000000001,-8.47803,-4.3717,-14.45344,7.92944,7.33685,-26.45093,10.79138,2.99025,8.05125
58,49,In,8.494021,-5.052033000000001,106.910290071,20.06632,11.071370000000002,-1.18648,-12.91102,-3.91085,-14.281889999999999,11.02744,3.7210900000000002,-34.135,11.48038,5.2681700000000005,7.19859
57,50,Sn,8.439494000000002,-7.858988999999999,106.915713651,21.316869999999998,8.75633,-0.28553,-17.972900000000003,1.33094,-20.11025,9.22986,5.193060000000001,,11.83915,2.53449,11.102549999999999
56,51,Sb,8.358734,-10.113913,106.924150624,22.78039,5.59061,1.55444,-21.224,2.6659200000000003,-20.504810000000003,12.25126,0.58852,,13.39556,5.83786,11.17583
55,52,Te,8.256898999999999,-11.11,106.935008356,23.87045,1.77928,4.00835,,9.52539,,10.3909,1.355,,14.18696,3.49835,16.73412
54,53,I,8.146,,106.946935,,-0.008,4.324,,9.755,,,-1.5010000000000001,,14.093,,15.39
69,39,Y,8.134,14.056000000000001,107.95996,7.3870000000000005,,,22.249,,9.011000000000001,3.004,15.686,38.626,8.204,6.1770000000000005,
68,40,Zr,8.257,8.193,107.94487,8.946,31.141000000000002,-9.672,19.403,-29.743000000000002,4.299,5.045,16.278,32.308,5.4110000000000005,4.781,-7.096
67,41,Nb,8.325665,11.210177,107.936074988,9.485040000000001,28.071,-7.907,16.377010000000002,-24.47,4.93448,3.8932700000000002,12.45505,25.48596,9.71503,6.7830200000000005,-2.629
66,42,Mo,8.422219,5.166835,107.924040367,10.76405,26.783900000000003,-7.4568,12.90541,-23.66522,-0.07735,6.2757,14.321100000000001,18.768259999999998,6.15822,4.02366,-3.64481
65,43,Tc,8.462816,7.738573000000001,107.918493541,12.289190000000001,24.29736,-6.5286800000000005,9.10894,-19.48794,-0.13158,5.24418,10.66019,11.68399,10.922559999999999,6.278420000000001,-0.36083
64,44,Ru,8.527225000000001,1.3703699999999999,107.910185841,13.48076,22.10476,-5.7363,5.8628599999999995,-18.39876,-4.86896,7.87016,12.20041,5.591060000000001,6.82568,3.49279,-0.6778099999999999
63,45,Rh,8.53267,4.4924859999999995,107.908714688,14.81173,19.83344,-4.953189999999999,2.57504,-13.570780000000001,-4.7303999999999995,6.23934,8.45818,-0.9119,12.00231,5.76682,2.90477
62,46,Pd,8.567022999999999,-1.917444,107.903891805,15.75931,17.77893,-3.85341,-0.27179000000000003,-12.950660000000001,-9.18885,9.22288,9.94947,-7.45427,7.54923,3.1910900000000004,2.05669
61,47,Ag,8.542025,1.6456510000000002,107.905950266,16.80701,15.82208,-3.07233,-3.48694,-8.03203,-8.68782,7.27141,6.523090000000001,-15.161430000000001,13.01157,5.67518,5.89088
60,48,Cd,8.550019,-5.132595,107.904183587,18.26291,13.92283,-2.2822199999999997,-7.18248,-8.16875,-13.75947,10.33347,8.13471,-23.47075,8.400780000000001,2.68248,4.81188
59,49,In,8.495251,-2.049881,107.909693655,19.65432,11.755379999999999,-1.42828,-11.67449,-3.00212,-13.67891,8.62688,4.41853,-31.470209999999998,13.72313,5.078069999999999,8.59742
58,50,Sn,8.469027,-9.624607000000001,107.911894292,20.858880000000003,9.51574,-0.52647,-16.28827,-2.36865,-19.488020000000002,11.62903,5.79465,,9.249,2.4346900000000002,7.9103
57,51,Sb,8.372665999999999,-6.663664,107.922226734,22.11467,6.41514,1.3124200000000001,-19.79573,3.8299600000000003,-19.97732,9.86341,1.22207,,15.61916,5.7567200000000005,12.84164
56,52,Te,8.303721,-13.132062,107.929380471,23.70455,3.00592,3.4204600000000003,,5.441590000000001,-24.423000000000002,13.31366,2.4174,,11.40243,3.09787,13.202729999999999
55,53,I,8.174884,,107.943478321,,0.75425,4.099100000000001,,10.71466,,11.291,-0.60075,,16.28095,5.02596,17.01228
70,39,Y,8.096,12.992,108.964358,6.979,,,23.489,,10.082,3.975,,41.082,6.41,6.454,
69,40,Zr,8.208,10.497,108.95041,7.956,31.871000000000002,-10.007,20.473,,5.282,2.911,16.185,34.546,6.882000000000001,4.724,-5.756
68,41,Nb,8.29713,9.976201999999999,108.939141,9.10862,28.903000000000002,-7.84435,17.59298,-26.682000000000002,5.99483,5.215350000000001,12.625,28.30966,8.4007,6.7242500000000005,-4.99
67,42,Mo,8.381477,7.61678,108.928431106,10.25707,26.864250000000002,-7.626180000000001,14.07241,-22.602,1.18546,3.98137,14.4092,20.94048,7.76862,4.40142,-2.4696100000000003
66,43,Tc,8.444178,6.4556260000000005,108.920254156,11.6755,25.13691,-6.792140000000001,10.71668,-22.02598,1.30726,6.431310000000001,10.8158,14.43665,8.97959,6.71581,-2.43302
65,44,Ru,8.496227000000001,4.261054000000001,108.913323756,13.01852,22.76478,-5.826180000000001,6.8680699999999995,-17.271430000000002,-3.778,5.14837,12.10459,7.76592,8.72232,3.9018800000000002,1.04253
64,45,Rh,8.528142,2.607021,108.908749326,14.27839,20.82748,-5.1342799999999995,3.71997,-16.36565,-3.5465700000000004,8.03905,8.62708,1.49006,9.573860000000002,6.187819999999999,0.42317000000000005
63,46,Pd,8.544882,1.11295,108.905950574,15.37647,18.321900000000003,-4.0969,0.8978400000000001,-11.2341,-8.07103,6.15359,9.86373,-4.97629,9.96803,3.62021,4.36315
62,47,Ag,8.547915000000001,-0.215105,108.904755773,16.45539,16.43366,-3.2931,-2.22991,-10.97668,-7.53833,9.18398,6.48419,-12.46845,10.36402,6.05216,3.2896
61,48,Cd,8.538763999999999,-2.014809,108.904986698,17.656689999999998,14.709620000000001,-2.5113499999999997,-5.874140000000001,-6.26908,-12.45582,7.32322,8.18653,-20.78893,10.61316,3.30212,7.0496099999999995
60,49,In,8.513102000000002,-3.8593270000000004,108.907149685,19.067880000000002,12.66078,-1.84359,-10.23853,-6.1717200000000005,-12.49089,10.44101,4.52607,-28.81701,11.21156,5.50668,6.099270000000001
59,50,Sn,8.470518,-6.379206,108.911292843,20.26059,10.21786,-0.72126,-14.914790000000002,-0.66674,-18.256169999999997,8.63156,5.79934,-36.46064,11.644879999999999,2.84201,10.14836
58,51,Sb,8.404815000000001,-8.535587,108.918141204,21.74037,7.26466,0.96468,-18.57848,0.57987,-18.54063,11.876959999999999,1.47001,,12.972059999999999,5.966760000000001,10.00356
57,52,Te,8.31933,-10.042894,108.927304534,23.3187,3.7811,3.19769,-21.545840000000002,7.06558,-23.1371,10.005040000000001,2.5590300000000004,,13.64865,3.62196,15.2847
56,53,I,8.220016,-11.502948,108.938086025,24.385,1.5972000000000002,3.91807,,7.48386,,13.094209999999999,-0.8202,,13.577639999999999,5.41131,14.4472
55,54,Xe,8.107306,,108.950434948,,0.20816,4.21705,,12.32315,,,0.80891,,13.971,,17.6966
70,40,Zr,8.177,9.424,109.95396,7.675,,-10.521,21.657,,5.732,4.765,16.975,37.187,5.122,4.3420000000000005,-8.34
69,41,Nb,8.25526,12.232677,109.943843,8.906780000000001,29.591,-8.682,18.7246,-26.399,6.284770000000001,3.69143,13.406,30.51878,9.754,6.93383,-4.299
68,42,Mo,8.359354,6.491925,109.93071068,9.92928,27.767,-8.41751,15.52999,-25.639,1.6688699999999999,5.94791,15.14176,23.78832,5.71399,4.04528,-4.5165
67,43,Tc,8.411259,9.038066,109.923741312,11.254370000000002,26.066689999999998,-7.25607,11.79418,-21.633689999999998,1.63257,4.82305,11.65749,16.422790000000003,10.43224,6.381100000000001,-1.6643
66,44,Ru,8.486311,2.75611,109.914038548,12.55386,23.89458,-6.36296,8.25833,-20.69555,-3.14444,7.40549,13.07877,10.27539,6.5610100000000005,3.54139,-1.87462
65,45,Rh,8.504254000000001,5.502218,109.911079742,13.9396,21.48385,-5.47738,4.62862,-15.83488,-3.29353,5.90055,9.37926,3.64128,11.54347,5.89788,1.56763
64,46,Pd,8.547162,-0.873603,109.905172868,14.94933,19.2475,-4.432600000000001,2.01706,-14.88147,-7.6828,8.79575,10.620420000000001,-2.4889200000000002,7.41162,3.39685,1.17801
63,47,Ag,8.532108000000001,2.890667,109.906110719,15.993170000000001,17.00352,-3.5195900000000004,-0.98733,-9.74682,-7.0243,6.80919,7.1398,-10.00757,12.777709999999999,5.77939,5.0528
62,48,Cd,8.551275,-3.878,109.90300746,17.23819,15.401700000000002,-2.8653600000000004,-4.50599,-10.03046,-11.929770000000001,9.91497,8.91751,-18.11816,7.969600000000001,2.9227600000000002,3.6710700000000003
61,49,In,8.508908,-0.627985,109.907170665,18.49278,13.44115,-1.9525000000000001,-9.02023,-5.03951,-11.911100000000001,8.051770000000001,5.25462,-26.00579,13.49325,5.38435,7.583100000000001
60,50,Sn,8.496087,-8.39225,109.907844835,19.91468,11.16751,-1.13476,-13.61217,-4.6266300000000005,-17.66232,11.28312,6.641439999999999,-33.919360000000005,8.98864,2.58633,6.7946800000000005
59,51,Sb,8.412681000000001,-5.219923,109.916854286,21.14704,7.9078599999999994,0.73348,-16.985560000000003,1.75081,-17.80566,9.27007,2.10852,,15.331010000000001,5.926550000000001,11.76093
58,52,Te,8.358115,-11.765635,109.922458104,22.59078,4.7378100000000005,2.69896,-20.30719,3.1114,-22.62863,12.58574,3.2678000000000003,,10.92633,3.28748,11.92882
57,53,I,8.244043,-8.541551,109.935089033,23.95721,2.59679,3.5842,,8.49783,-22.36595,10.863,0.03776,,16.028299999999998,4.9392,15.83546
56,54,Xe,8.15928,,109.944258765,,0.7189,3.87221,,8.50379,,13.82439,1.5391,,11.437790000000001,2.371,14.263100000000001
71,40,Zr,8.128,11.316,110.959678,7.51,,-11.085,22.38,,6.679,2.745,,39.226,6.351,4.601,
70,41,Nb,8.223,11.064,110.94753,8.328,30.253,-8.936,20.149,,7.596,4.6370000000000005,13.278,33.429,8.028,7.3420000000000005,-5.932
69,42,Mo,8.315292,9.084861000000002,110.935652016,9.4164,28.325,-7.98499,16.845509999999997,-24.343,3.02343,3.46849,14.91882,26.04613,7.46084,4.47006,-2.94
68,43,Tc,8.390089,7.760649000000001,110.925899016,10.88448,26.912770000000002,-7.7257299999999995,13.27983,-24.00368,2.9766399999999997,6.0614300000000005,11.77101,19.190830000000002,8.35218,6.5953800000000005,-3.83246