N,Z,element,be_per_a,beta_decay_energy,atomic_mass,s2n,s2p,qa,q2b,qep,qbn,s1n,s1p,q4b,qda,qpa,qna
67,44,Ru,8.452957000000001,5.519181,110.917567616,12.1895,24.69722,-6.6586300000000005,9.20062,-19.53166,-2.0279000000000003,4.78401,13.03973,12.46698,8.208309999999999,4.0015600000000004,-0.38293
66,45,Rh,8.495631,3.681435,110.911642531,13.44763,22.599619999999998,-5.97945,5.9110000000000005,-18.55891,-2.04486,7.54708,9.520850000000001,6.0875900000000005,9.14476,6.22095,-0.73527
65,46,Pd,8.521749,2.22956,110.907690347,14.52205,19.82543,-4.54829,3.26636,-13.202280000000002,-6.5999,5.7263,10.44617,-0.047299999999999995,9.72437,3.90989,3.32186
64,47,Ag,8.534787,1.0368,110.905296816,15.63866,17.79393,-3.77666,0.1766,-12.67573,-5.9388000000000005,8.82946,7.17351,-7.37871,10.10183,6.17281,2.46267
63,48,Cd,8.537079,-0.860204,110.904183766,16.89056,16.22371,-3.30452,-3.31366,-8.21031,-10.8536,6.975600000000001,9.08392,-15.66477,10.17798,3.21857,5.91836
62,49,In,8.522281999999999,-2.453456,110.905107233,18.04517,14.25056,-2.41029,-7.55531,-8.223709999999999,-10.62138,9.99339,5.3330400000000004,-23.43826,10.823080000000001,5.724430000000001,4.86112
61,50,Sn,8.493129999999999,-5.101851,110.907741126,19.451040000000003,12.01221,-1.37324,-12.35111,-2.8795900000000003,-16.56017,8.16792,6.75759,-31.54305,11.26173,3.04529,8.96023
60,51,Sb,8.44012,-7.249259,110.913218189,20.72839,8.92517,0.30261000000000005,-15.882950000000001,-1.65574,-16.678240000000002,11.45832,2.2837199999999998,-38.016,12.50425,6.09726,8.92948
59,52,Te,8.367763000000002,-8.633692,110.921000589,22.01472,5.535229999999999,2.4998400000000003,-19.19194,4.96554,-21.19462,9.42898,3.42671,,13.37431,3.72191,14.128860000000001
58,53,I,8.282934,-10.558252000000001,110.930269239,23.42392,3.2807500000000003,3.27454,-22.133,5.20698,-21.10248,12.56093,0.01295,,13.47241,5.69194,13.137950000000002
57,54,Xe,8.180766,-11.575000000000001,110.941603989,24.36862,1.2580799999999999,3.7188800000000004,,10.545309999999999,,10.54423,1.22033,,13.987770000000001,3.1181300000000003,17.032529999999998
56,55,Cs,8.069,,110.95403,,-0.274,4.184,,10.354000000000001,,,-1.813,,14.06,,15.475
72,40,Zr,8.094,10.463000000000001,111.963703,7.067,,,23.653000000000002,,6.994,4.322,,41.82,,4.2540000000000004,
71,41,Nb,8.18,13.19,111.95247,8.107,,-9.402000000000001,20.985,,7.595,3.47,14.003,35.458,9.323,6.783,-5.4270000000000005
70,42,Mo,8.291,7.795,111.93831,9.064,29.156000000000002,-8.536,18.167,-27.193,3.489,5.595,15.877,28.858,5.557,4.09,-5.625
69,43,Tc,8.353620999999999,10.371881,111.929941644,10.36706,27.526970000000002,-8.13809,14.47257,-23.672,3.45502,4.30563,12.60815,21.32478,9.99445,6.27111,-2.9227399999999997
68,44,Ru,8.439242,4.100685,111.918806972,11.70088,25.666169999999997,-7.29979,10.69074,-22.98003,-1.39768,6.91686,13.89517,14.944040000000001,6.1145000000000005,3.51601,-3.31842
67,45,Rh,8.46887,6.590059,111.914404705,13.04545,23.27493,-6.23364,6.85221,-17.995849999999997,-1.8169300000000002,5.49837,10.2352,8.25863,11.051879999999999,5.87095,0.19766999999999998
66,46,Pd,8.520724,0.262156,111.907329986,14.13329,20.82693,-5.08513,4.2533,-16.82526,-6.17743,8.40699,11.30608,2.33349,7.217930000000001,3.54195,0.06324
65,47,Ag,8.51608,3.9911410000000003,111.90704855,15.26905,18.332970000000003,-3.9769099999999997,1.4064100000000002,-11.56824,-5.40279,6.43959,7.8868,-4.98475,12.45799,5.8868100000000005,4.06214
64,48,Cd,8.54473,-2.584728,111.902763883,16.36952,16.821900000000003,-3.4755700000000003,-1.9198,-11.87794,-10.25413,9.393930000000001,9.64838,-13.00735,7.59325,3.00862,2.67802
63,49,In,8.514667,0.664925,111.905538704,17.6628,15.11077,-2.8082800000000003,-6.39117,-7.06365,-10.122860000000001,7.6693999999999996,6.0268500000000005,-20.9268,13.06864,5.37824,6.3757
62,50,Sn,8.513618000000001,-7.056091,111.904824877,18.95571,12.88503,-1.82756,-11.08755,-6.69178,-15.88964,10.787790000000001,7.5519799999999995,-28.62872,8.52572,2.69851,5.4956700000000005
61,51,Sb,8.443632,-4.031457,111.912399903,20.29186,9.706940000000001,0.09594,-14.53563,-0.49589,-16.0828,8.833549999999999,2.94935,-35.308690000000006,14.95383,5.895270000000001,10.536950000000001
60,52,Te,8.400652000000001,-10.504178,111.91672785,21.480330000000002,6.303470000000001,2.07751,-17.541169999999997,1.08211,-20.68504,12.051350000000001,4.01974,,10.59303,3.54752,10.70908
59,53,I,8.299879,-7.036991,111.92800455,22.74179,4.19154,2.95709,-20.77305,6.484439999999999,-20.73911,10.180860000000001,0.76482,,15.87729,5.51612,14.83405
58,54,Xe,8.230064,-13.736062,111.935559071,24.24635,2.3744699999999996,3.33041,,6.27217,-25.277,13.70212,2.36152,,11.14864,2.5102100000000003,13.335450000000002
57,55,Cs,8.100435000000001,,111.950305341,,0.40404,3.9344099999999997,,11.374540000000001,,11.541,-0.81629,,16.34315,4.74333,17.02862
72,41,Nb,8.146,11.979000000000001,112.95651,7.7780000000000005,,-9.735,22.301000000000002,,8.882,4.308,13.989,38.257,7.76,7.239,
71,42,Mo,8.245000000000001,10.322000000000001,112.94365,8.693,29.508,-8.722,19.378,-25.968,4.698,3.097,15.505,31.101,7.097,4.684,-3.9570000000000003
70,43,Tc,8.329464,9.056578,112.932569033,9.929549999999999,28.514,-8.54666,15.956,-25.827,4.74796,5.62392,12.637,24.21528,7.83903,6.5951,-4.85523
69,44,Ru,8.402688,6.899417000000001,112.922846396,11.22548,26.5063,-7.62704,11.72297,-21.693,-0.20793,4.30862,13.89815,17.17516,7.867310000000001,4.03045,-1.6791300000000002
68,45,Rh,8.456821,4.823555000000001,112.91543956699999,12.60572,24.32086,-6.909680000000001,8.259290000000002,-20.79757,-0.51729,7.10735,10.425690000000001,10.59958,8.72854,6.1691,-2.08662
67,46,Pd,8.492584,3.435731,112.910261267,13.74784,21.38376,-5.27761,5.45219,-15.24924,-5.07869,5.3408500000000005,11.14856,4.73704,9.42417,4.101649999999999,2.12789
66,47,Ag,8.516065000000001,2.016462,112.906572858,14.95401,19.300310000000003,-4.45228,2.34029,-14.584290000000001,-4.52328,8.51442,7.99423,-2.60985,9.669870000000001,6.16814,1.44827
65,48,Cd,8.526987,0.32383300000000004,112.904408097,15.933670000000001,17.63534,-3.86172,-0.71515,-10.01069,-9.124469999999999,6.53974,9.74854,-10.696250000000001,9.88297,3.27807,4.93402
64,49,In,8.522929,-1.0389849999999998,112.904060448,17.11771,15.729610000000001,-3.07261,-4.95015,-10.072370000000001,-8.78338,9.4483,6.08123,-18.24761,10.59594,5.84491,3.73659
63,50,Sn,8.506810999999999,-3.9111640000000003,112.905175845,18.53218,13.653830000000001,-2.24873,-9.981100000000001,-5.04224,-14.80048,7.74439,7.62697,-26.124509999999997,10.77472,3.00589,7.66624
62,51,Sb,8.465275,-6.069939000000001,112.909374652,19.72287,10.602870000000001,-0.35237,-13.29746,-3.71581,-14.92078,10.88932,3.0508800000000003,-32.65244,12.23243,6.28907,7.6994
61,52,Te,8.404636,-7.2275220000000004,112.915891,20.902189999999997,6.9863800000000005,1.8582400000000001,-16.14341,3.01906,-19.35502,8.85084,4.03704,-38.563,13.200510000000001,3.9667600000000003,13.14136
60,53,I,8.333752,-8.915889,112.923650064,22.30836,4.86071,2.7065500000000005,-19.35498,3.19049,-19.16449,12.12749,0.84097,,13.178780000000001,5.97436,11.97663
59,54,Xe,8.247927,-10.439088,112.933221666,23.95072,3.19408,3.08686,-22.42,8.07492,-23.98466,10.2486,2.42926,,13.46097,3.12461,15.672590000000001
58,55,Cs,8.148622,-11.98,112.944428488,25.086000000000002,1.38869,3.4830500000000004,,8.009830000000001,,13.54557,-0.97284,,13.34181,5.02215,14.34605
57,56,Ba,8.036,,112.95729,,-0.033,3.9610000000000003,,12.953,,,0.783,,13.747,,17.785
73,41,Nb,8.1,14.42,113.96201,7.256,,,23.213,,9.031,2.948,,40.323,9.134,7.0360000000000005,
72,42,Mo,8.22,8.793000000000001,113.94653,8.486,30.574,-9.346,20.415,,4.933,5.389,16.585,33.684,5.178,3.9330000000000003,-6.601
71,43,Tc,8.290259,11.621523999999999,113.93709,9.483979999999999,28.904,-8.715290000000001,17.11034,-25.379,5.19651,3.86006,13.4,26.33051,9.574,6.20353,-4.078
70,44,Ru,8.385340000000001,5.488813,113.92461378,10.73363,27.336000000000002,-8.104140000000001,13.269129999999999,-25.021,0.47441000000000005,6.42501,14.69924,19.79312,5.74793,3.66687,-4.63565
69,45,Rh,8.426624,7.780319,113.918721296,12.12176,25.02963,-7.10103,9.22017,-20.18805,-0.19085,5.01441,11.13148,12.85918,10.631,5.9387,-1.0395999999999999
68,46,Pd,8.488010000000001,1.439856,113.91036878,13.31202,22.43807,-5.84328,6.5239899999999995,-18.91179,-4.5354399999999995,7.97117,12.01238,7.06878,6.95137,3.67756,-1.05927
67,47,Ag,8.493778,5.084133,113.908823031,14.48972,19.777240000000003,-4.52703,3.6390000000000002,-13.45223,-3.95883,5.97529,8.628680000000001,-0.43423,12.10157,5.9191400000000005,3.0200500000000003
66,48,Cd,8.531513,-1.445132,113.90336499,15.582709999999999,18.271310000000003,-4.10894,0.54479,-13.71281,-8.71913,9.04297,10.27708,-8.12636,7.279590000000001,3.0645700000000002,1.61736
65,49,In,8.511973,1.989923,113.904916402,16.7223,16.56402,-3.53741,-4.07323,-8.83195,-8.31299,7.274,6.81549,-15.774000000000001,12.715860000000001,5.5465,5.292050000000001
64,50,Sn,8.522566000000001,-6.063149,113.902780132,18.0473,14.562809999999999,-2.63667,-8.671149999999999,-8.80541,-14.21407,10.30291,8.48158,-23.473830000000003,8.141210000000001,2.69637,4.33893
63,51,Sb,8.462518,-2.6080050000000004,113.909289191,19.04024,11.08438,-0.45152,-11.700000000000001,-2.41843,-14.22086,8.150920000000001,3.45741,-29.814310000000003,14.869290000000001,6.30607,9.541870000000001
62,52,Te,8.432778,-9.092,113.912089,20.463700000000003,7.81145,1.5285,-14.80268,-0.84941,-18.84038,11.612860000000001,4.7605699999999995,-35.98314,10.4212,3.81222,9.69642
61,53,I,8.346,-5.71,113.92185,21.876,5.775,2.229,-18.114,4.332,-18.664,9.748,1.738,,15.482000000000001,5.655,13.687000000000001
60,54,Xe,8.289205,-12.403629,113.927980331,23.202189999999998,4.0963199999999995,2.7190100000000004,-21.18046,3.97217,-23.392680000000002,12.95359,3.25535,,10.68825,2.73195,12.14799
59,55,Cs,8.173537999999999,-8.776835,113.941296175,24.53462,2.19687,3.357,,9.148280000000002,-22.969,10.989049999999999,-0.23238999999999999,,16.05488,4.57733,15.91793
58,56,Ba,8.089686,,113.950718495,,0.45703,3.59228,,9.00922,,14.193,1.42987,,11.09566,1.7790000000000001,14.136510000000001
74,41,Nb,8.065,13.395,114.96634,6.986,,,24.966,,10.382,4.038,,42.876,,7.32,
73,42,Mo,8.175,11.571,114.95196,8.402000000000001,,-9.614,21.441,,5.78,3.013,16.65,35.677,6.473,4.389,-5.292
72,43,Tc,8.268527,9.869744,114.939538,9.65108,30.387,-9.869,17.90984,-28.222,5.8305,5.7910200000000005,13.802,28.66266,6.881,6.008,-6.4
71,44,Ru,8.347547,8.040097,114.928942393,10.46425,28.278000000000002,-8.67489,14.23665,-23.672,1.44957,4.0392399999999995,14.87842,21.894740000000002,7.33261,3.93326,-3.079
70,45,Rh,8.410658,6.196554,114.920310993,11.604930000000001,25.99623,-7.63012,10.75282,-22.918509999999998,1.1898,6.590520000000001,11.29699,15.306510000000001,8.34909,6.26504,-3.32449
69,46,Pd,8.457737999999999,4.556268,114.913658718,12.97793,23.13621,-6.06603,7.6580900000000005,-17.493540000000003,-3.5669,5.006760000000001,12.00473,9.60745,9.05196,4.16917,0.8508300000000001
68,47,Ag,8.490555,3.101825,114.908767363,14.098469999999999,20.79306,-5.10312,4.55369,-16.561,-3.03904,8.12317,8.78068,2.02075,9.31924,6.20296,0.39525
67,48,Cd,8.510724,1.451867,114.905437417,15.18383,19.071330000000003,-4.52351,1.94936,-11.88251,-7.586,6.14086,10.44265,-6.02172,9.65315,3.36329,3.88348
66,49,In,8.516546,0.49748899999999996,114.903878773,16.31186,17.08746,-3.74581,-2.53294,-11.89452,-7.04794,9.03786,6.81038,-13.19855,10.21774,5.90257,2.69377
65,50,Sn,8.514069,-3.030432,114.903344697,17.84834,15.56849,-3.2065,-7.97108,-7.30787,-13.60858,7.5454300000000005,8.753,-21.37709,10.04409,2.82035,6.18743
64,51,Sb,8.480915000000001,-4.940644000000001,114.906598,18.72907,12.21423,-1.03628,-10.665610000000001,-5.72257,-13.18615,10.578149999999999,3.73265,-27.304000000000002,12.035530000000001,6.51571,6.63313
63,52,Te,8.43115,-5.7249620000000006,114.911902,19.85836,8.31257,1.4509100000000001,-13.40601,1.2079900000000001,-17.338,8.245510000000001,4.85516,-33.043,13.06502,4.40026,12.238700000000001
62,53,I,8.374564000000001,-7.681049,114.918048,21.36092,6.49877,2.07402,-16.638,0.86981,-17.323220000000003,11.613,1.7382000000000002,,12.720040000000001,6.09377,10.90757
61,54,Xe,8.30097,-8.957,114.926293945,22.59576,4.88766,2.50581,-19.637,5.942850000000001,-22.0458,9.64218,3.149,,13.17357,3.2706399999999998,14.55716
60,55,Cs,8.216,-10.68,114.93591,24.078,3.158,2.829,,5.808,-21.865000000000002,13.089,-0.097,,13.215,5.191,13.01
59,56,Ba,8.117,,114.947375,25.378,1.3940000000000001,2.951,,10.777000000000001,,11.186,1.627,,13.455,2.134,16.653
74,42,Mo,8.146,9.956,115.955448,7.836,,-10.114,22.569,,6.7490000000000006,4.822,17.435,38.332,4.598,3.875,
73,43,Tc,8.225,12.613,115.94476,8.998,30.646,-9.607,19.28,-27.391000000000002,6.663,3.207,13.996,31.087,9.062,5.898,-5.299
72,44,Ru,8.326883,6.667213,115.931219193,9.98973,28.84,-9.03,15.76273,-26.609,2.08961,5.95049,15.037889999999999,24.64357,5.24218,3.60669,-5.933
71,45,Rh,8.377615,9.095512000000001,115.924061645,11.16813,26.71378,-7.902100000000001,11.80653,-21.705099999999998,1.6189500000000001,4.57761,11.835360000000001,17.513630000000003,10.1965,5.99605,-2.27818
70,46,Pd,8.449280000000002,2.711019,115.91429721,12.48333,24.187759999999997,-6.62573,8.88085,-20.93087,-2.9203,7.47657,12.89077,11.69433,6.5898,3.79996,-2.31711
69,47,Ag,8.465907,6.169827000000001,115.911386812,13.75449,21.40997,-5.23607,5.7071000000000005,-15.601790000000001,-2.52949,5.63132,9.40524,4.2795000000000005,11.6591,5.91249,1.87128
68,48,Cd,8.512350000000001,-0.462731,115.90476323,14.84018,19.79948,-4.81583,2.81349,-15.57506,-7.24745,8.69932,11.018799999999999,-3.44352,6.929130000000001,3.1784000000000003,0.52501
67,49,In,8.501617,3.276221,115.905259992,15.82258,17.89689,-4.09095,-1.4276,-10.55607,-6.28723,6.78472,7.4542399999999995,-10.75751,12.47599,5.65759,4.42348
66,50,Sn,8.523116,-4.7038199999999994,115.901742824,17.108880000000003,16.08898,-3.37603,-6.25701,-10.730459999999999,-12.593879999999999,9.563450000000001,9.278590000000001,-18.47925,7.75464,2.7052,3.16372
65,51,Sb,8.475821,-1.5531890000000002,115.906792583,18.46821,12.830290000000002,-1.25693,-9.32991,-4.574770000000001,-12.83071,7.890060000000001,4.07729,-24.78,14.44838,6.37004,8.191370000000001
64,52,Te,8.455687,-7.776725000000001,115.90846,19.52303,9.287180000000001,0.9611799999999999,-12.22224,-2.5241,-17.00248,11.27752,5.55453,-30.689,9.93842,4.01206,8.70557
63,53,I,8.381902,-4.445512,115.916808658,20.839000000000002,7.573600000000001,1.68181,-15.450000000000001,2.2222,-16.90681,9.225760000000001,2.71845,-36.847,15.10714,5.718850000000001,12.57113
62,54,Xe,8.336834000000001,-11.004,115.921581112,22.10347,5.7361,2.09587,-18.467,1.72706,-21.419,12.461290000000002,3.9979,,10.46,2.93684,10.94671
61,55,Cs,8.235,-7.463,115.933395,23.503,3.8240000000000003,2.596,-21.397000000000002,7.006,-21.094,10.414,0.675,,15.754,5.025,14.723
60,56,Ba,8.164,-13.935,115.941406,24.817,2.072,3.021,,6.788,,13.631,2.169,,10.813,2.049,13.27
59,57,La,8.037,,115.956365,,0.541,3.22,,11.765,,,-1.086,,15.971,4.003,16.766000000000002
75,42,Mo,8.1,12.212,116.96117,7.564,,,23.32,,7.214,2.741,,40.255,5.8950000000000005,4.082,
74,43,Tc,8.197000000000001,11.108,116.94806,8.204,31.606,-10.296,20.516000000000002,,7.6160000000000005,4.997,14.171000000000001,33.8,7.078,6.289,-7.348
73,44,Ru,8.285562,9.407508,116.936135,9.44276,29.319,-9.425,16.93461,-25.279,3.1749400000000003,3.49227,15.323,26.928520000000002,7.54093,3.9744800000000002,-4.0360000000000005
72,45,Rh,8.359281000000001,7.5271040000000005,116.926035623,10.81018,27.15532,-8.51075,13.28464,-24.731,2.86294,6.23257,12.11743,20.045669999999998,8.00317,6.18849,-4.65068
71,46,Pd,8.416929,5.757537,116.917954944,12.14073,24.81268,-6.98127,9.99391,-19.644540000000003,-1.95314,4.66416,12.97733,13.973270000000001,8.51616,4.1502,-0.55626
70,47,Ag,8.459451999999999,4.236375,116.911773974,13.341990000000001,22.53012,-5.839390000000001,6.76103,-18.73486,-1.5408499999999998,7.710680000000001,9.63935,6.45753,8.95518,6.17298,-0.82499
69,48,Cd,8.488973,2.524653,116.907226038,14.476540000000002,20.56994,-5.25221,3.9793600000000002,-13.87572,-6.23996,5.777229999999999,11.16471,-1.32298,9.27507,3.37647,2.71896
68,49,In,8.503865,1.454709,116.904515712,15.54933,18.538330000000002,-4.34114,-0.3035,-13.68936,-5.488390000000001,8.764610000000001,7.51953,-8.50696,9.85224,5.93595,1.63416
67,50,Sn,8.509611000000001,-1.758212,116.902954017,16.50655,16.89121,-3.77938,-5.30234,-8.97424,-11.64692,6.9431,9.436969999999999,-16.21241,9.8494,3.0361100000000003,5.26358
66,51,Sb,8.487897,-3.544128,116.904841535,17.77877,13.68113,-1.6973399999999998,-8.20346,-7.6787600000000005,-11.441889999999999,9.88871,4.40254,-22.14645,12.1051,6.78424,5.57666
65,52,Te,8.450919,-4.659334,116.908646313,19.17529,9.639520000000001,0.8078099999999999,-10.91007,-0.85841,-15.67449,7.89777,5.56223,-27.63766,12.6188,4.26522,11.11071
64,53,I,8.404409,-6.2507399999999995,116.913648314,20.24091,8.01062,1.5559800000000001,-13.94299,-0.9029,-15.46067,11.01516,2.45609,-33.965,12.33749,6.31655,9.7069
63,54,Xe,8.344297000000001,-7.692245,116.92035876,21.67122,6.700520000000001,1.73678,-16.727580000000003,3.7946500000000003,-20.214000000000002,9.20993,3.98207,,12.86327,3.475,13.34963
62,55,Cs,8.271863999999999,-9.035338,116.928616726,22.936,4.7332399999999994,2.2015000000000002,-20.022000000000002,3.71017,-19.984,12.522,0.73534,,12.87446,5.45685,11.950000000000001
61,56,Ba,8.187953,-10.987,116.938316561,24.581,3.3789499999999997,2.32095,,8.3,-24.884,10.949,2.704,,12.953,2.08856,15.274540000000002
60,57,La,8.087,,116.950111,,1.349,2.869,,8.283,,13.897,-0.8201,,13.26,4.299,13.858
76,42,Mo,8.069,11.159,117.96497,7.273000000000001,,,24.63,,7.68,4.532,,42.759,,3.588,
75,43,Tc,8.157,13.47,117.95299,8.476,,-10.827,21.098,,7.6290000000000004,3.479,14.909,35.764,8.421,5.823,-6.789
74,44,Ru,8.265,7.628,117.938529,9.334,30.338,-9.878,18.129,-28.379,3.5660000000000003,5.841,16.167,29.442,4.907,3.924,-6.864
73,45,Rh,8.322858,10.501286,117.930340443,10.29397,28.01,-8.71209,14.66633,-23.795,3.4657,4.0614,12.68657,22.34075,9.89226,6.16633,-2.9210700000000003
72,46,Pd,8.405222,4.165046,117.919066847,11.69975,25.89778,-7.591850000000001,11.31289,-23.187849999999997,-1.27805,7.03559,13.78034,16.264110000000002,6.05818,3.70514,-3.55261
71,47,Ag,8.433888999999999,7.147849,117.914595487,13.153770000000002,23.39561,-6.26808,7.6744200000000005,-17.94539,-1.20672,5.443090000000001,10.418280000000001,8.44242,10.98865,5.73665,0.32244
70,48,Cd,8.487834000000001,0.5265700000000001,117.906921955,14.13179,21.447950000000002,-5.63561,4.9512100000000006,-17.56613,-5.82992,8.35457,11.8086,0.99494,6.55182,3.14507,-0.62885
69,49,In,8.485667,4.4246430000000005,117.906356659,15.1211,19.2635,-4.72233,0.768,-12.33517,-4.90178,6.35649,8.09879,-6.25716,12.19508,5.72032,3.40084
68,50,Sn,8.516532999999999,-3.65664,117.901606609,16.26952,17.518310000000003,-4.0628400000000005,-3.95627,-12.52344,-11.084629999999999,9.32642,9.99878,-13.5738,7.3077,2.7475500000000004,2.07803
67,51,Sb,8.478915,-0.29963,117.905532174,17.3167,14.32441,-1.85133,-7.02517,-6.3421400000000006,-10.97212,7.42799,4.88743,-19.58685,14.24056,6.901680000000001,7.18653
66,52,Te,8.469745999999999,-6.725536,117.905853839,18.570259999999998,10.74856,0.43822000000000005,-9.61753,-4.5878000000000005,-15.33182,10.67249,6.34602,-25.342000000000002,9.83637,4.17087,7.98365
65,53,I,8.406120000000001,-2.891991,117.913074,19.62145,8.726840000000001,1.1006099999999999,-12.56168,0.37951999999999997,-14.857030000000002,8.606290000000001,3.16461,-31.411,15.00872,5.95577,11.67876
64,54,Xe,8.374981,-9.669689,117.91617868,21.174970000000002,7.38804,1.3845999999999998,-15.725,-0.27262000000000003,-19.65728,11.965040000000002,4.93195,,10.12399,3.12279,9.6301
63,55,Cs,8.286404000000001,-6.055,117.926559519,22.509,5.49507,1.962,-18.849,4.73774,-19.022930000000002,9.98759,1.5130000000000001,,15.34816,5.11144,13.57483
62,56,Ba,8.228,-12.794,117.93306,23.917,3.8850000000000002,2.307,,4.542,-23.955000000000002,12.968,3.15,,10.399000000000001,2.209,11.949