N,Z,element,be_per_a,beta_decay_energy,atomic_mass,s2n,s2p,qa,q2b,qep,qbn,s1n,s1p,q4b,qda,qpa,qna
120,85,At,7.8102694,-5.274754700000001,204.986060546,16.964548,6.037568,6.019571,-11.674702600000002,0.37243669999999995,-13.0857215,9.1805855,1.9324446000000002,-27.0912077,15.0371068,9.8211054,13.412737400000001
119,86,Rn,7.7807226,-6.3999479,204.991723228,17.668355599999998,4.976887700000001,6.386486,-13.5136172,3.3423101,-16.3883907,7.8109668,3.1234838000000003,,15.163649900000001,7.7493973,15.8782071
118,87,Fr,7.745687,-7.1136693,204.998593854,18.3288649,3.7251514,7.054709300000001,-15.416504999999999,3.2764641,-15.4422317,9.988442800000001,0.6286719000000001,,15.5850355,9.8287994,14.9316922
117,88,Ra,7.7071698,-8.3028357,205.006230692,18.9401138,2.5900444000000005,7.4863498,,6.4849974,,8.328562400000001,2.0924265,,15.638247600000001,7.5663703,17.7248157
116,89,Ac,7.6628519,,205.015144152,,1.3476659,8.0931999,,6.2104092,,,-0.7566203,,16.216165,9.895843999999999,16.651553
128,78,Pt,7.82,4.95,205.99008,7.763,,0.865,11.705,,1.2590000000000001,4.492,10.929,14.545,11.041,9.994,3.676
127,79,Au,7.84,6.755,205.984766,9.943,19.198,0.025,8.063,-15.879,0.026000000000000002,3.6910000000000003,8.659,5.838,14.141,10.184000000000001,5.8260000000000005
126,80,Hg,7.869172300000001,1.3075659000000002,205.977513837,12.3982159,17.904,-0.6785156,2.8397787,-15.415000000000001,-5.1962435,6.729327100000001,9.664,-2.7570593,10.155,7.0617714,4.211
125,81,Tl,7.8717219,1.5322128000000002,205.976110108,14.0498598,16.441,-0.3252275,-2.2250929,-10.972,-6.5544495,6.503809400000001,7.254546,-9.8139055,13.1476614,7.8799647,6.5365524
124,82,Pb,7.875362,-3.7573057,205.97446521,14.818327300000002,13.673300600000001,1.1348875,-5.596838,-8.7867588,-10.791255,8.0866623,7.2536752,-14.652588100000001,11.271370500000002,6.839858100000001,7.1300988
123,83,Bi,7.8533249,-1.8395323000000001,205.978498843,15.5249099,10.260072899999999,3.5273026,-7.588812600000001,-3.4963694999999997,-10.5781203,7.033949300000001,3.5470096,-18.7813416,15.792421500000001,9.6223373,11.3795108
122,84,Po,7.840597300000001,-5.749280300000001,205.980473662,15.990259,7.6567953,5.327024000000001,-9.0557501,-1.7074773,-13.2754673,8.738588,4.41207,-21.7542813,13.1680655,8.2002801,12.2442166
121,85,At,7.8088904,-3.3064697,205.986645768,16.7067725,6.3714033,5.8865504,-11.192529,1.3372103,-12.8009417,7.526187,2.2069607,-25.9241416,16.612464499999998,9.735486000000002,14.7319074
120,86,Rn,7.7890417,-7.8860592,205.990195409,17.3054388,5.369814900000001,6.3837351,-12.6985313,1.099509,-15.8944199,9.494472,3.4373703,,13.4531404,7.8937441,13.8243027
119,87,Fr,7.7469621,-4.8124721,205.998661441,17.996803500000002,3.9495496,6.923331600000001,-14.7316126,4.4486889000000005,-15.12203,8.0083607,0.8260658,,17.4340636,9.801241000000001,16.5621504
118,88,Ra,7.719802800000001,-9.9191406,206.003827842,18.6381203,3.0422135,7.415257800000001,,3.9864063,-18.612393700000002,10.3095579,2.4135416000000003,,13.6691117,7.5532558,15.396060100000001
117,89,Ac,7.6678538,,206.014476477,,1.7004969,7.9582999,,7.5055989,,8.6932531,-0.3919296,,18.1344634,9.7474782,18.2547434
129,78,Pt,7.797000000000001,6.501,206.995556,7.462,,0.706,12.348,,1.98,2.97,,18.312,12.171,10.295,
128,79,Au,7.824,5.847,206.988577,8.213000000000001,19.618000000000002,1.305,10.394,,2.234,4.521,8.689,9.414,12.891,11.844,4.5760000000000005
127,80,Hg,7.848611200000001,4.5469906,206.9823,10.3423632,18.245,0.598,5.9645228,-14.536,-2.3054702000000002,3.6130362000000003,9.586,0.6582547,12.794,8.767,6.779
126,81,Tl,7.8667979,1.4175323000000002,206.977418605,13.3562702,17.042,-0.3159084,-0.9798817000000001,-14.133000000000001,-5.320247999999999,6.8524608,7.3776797,-7.8069545,11.9640894,8.5197668,5.002
125,82,Pb,7.8698664,-2.3974140000000004,206.975896821,14.824442600000001,14.742192,0.3923186,-5.3062681000000005,-8.795212,-10.4950859,6.7377802,7.487646,-13.8172268,12.0796407,6.7581565,7.884581600000001
124,83,Bi,7.8545053,-2.9088541,206.978470551,15.1316213,10.8116944,3.2818388,-6.8270726999999995,-5.090232,-9.9372043,8.0976719,3.5580192000000004,-17.2055339,14.426414600000001,9.9193158,9.9379175
123,84,Po,7.8366734,-3.9182186000000003,206.981593334,15.7669382,7.9534804999999995,5.215866500000001,-8.5109586,-0.6491651,-12.777630499999999,7.0283502,4.4064708,-20.6596882,14.630676,8.3642816,13.6105169
122,85,At,7.8139653000000004,-4.59274,206.985799715,16.3855989,6.7398546,5.8724955,-10.3784611,-0.4882522,-12.1658816,8.8594119,2.3277845000000004,-24.37371,15.0047236,9.9776189,13.0648472
121,86,Rn,7.7879987,-5.7857211,206.990730224,17.0676136,5.6912855,6.2511611,-12.148729600000001,2.2649555,-15.459200800000001,7.5731416000000005,3.4843248,,15.0605843,8.104565,15.352705900000002
120,87,Fr,7.7562689,-6.3630084,206.99694145,17.681840400000002,4.4424437,6.8886707,-13.995248799999999,2.3013963,-14.4859517,9.6734797,1.0050735,,15.5715507,9.9851501,14.672633099999999
119,88,Ra,7.7217503,-7.6322404,207.00377242,18.4325012,3.35419,7.2731167999999995,,5.357935,-18.0420838,8.1229433,2.5281242,,15.5346112,7.7707347,17.1305056
118,89,Ac,7.6811001,,207.011965967,19.1030966,2.1218975,7.844899900000001,,5.104116100000001,,10.409843500000001,-0.29164409999999996,,16.0531823,9.9491861,16.1853221
130,78,Pt,7.78,5.41,207.999463,7.402,,,12.765,,2.069,4.432,,21.248,,9.964,
129,79,Au,7.803,7.355,207.993655,7.863,,1.235,10.84,,2.5060000000000002,3.341,9.06,12.96,14.041,11.774000000000001,5.336
128,80,Hg,7.8341914,3.4847131,207.985759,8.4623161,18.603,1.93,8.483111500000001,-16.415,-0.3022894,4.84928,9.914,4.2037996,11.636000000000001,10.169,5.2010000000000005
127,81,Tl,7.8471835,4.9983984,207.982018006,10.6394633,17.138,1.215,2.1200304,-13.399000000000001,-2.3694702000000003,3.7870025000000003,7.551646,-4.2802195,14.906414000000002,10.401653099999999,7.4670000000000005
126,82,Pb,7.867453,-2.878368,207.976652005,14.1056489,15.3807336,0.5167129,-4.2793119,-12.5500444,-9.7652826,7.3678685999999995,8.0030539,-12.093129800000002,11.2155815,6.9363383,6.1856017
125,83,Bi,7.8498534,-1.4009438,207.97974206,14.9845866,11.194799699999999,3.0510029,-6.4002498999999995,-5.1246859,-9.7957687,6.8869146,3.7071536000000003,-16.2052232,15.6261623,9.7640662,10.5970533
124,84,Po,7.8393568,-4.9993061,207.981246035,15.423174999999999,8.261643,5.215692,-7.8138179,-2.3062098,-12.3130435,8.3948249,4.703623800000001,-19.1971408,13.269800400000001,8.4604173,11.947357
123,85,At,7.8115604,-2.8145118000000005,207.986613011,16.1731493,7.0196427,5.7511098,-9.8049733,0.2956823,-11.906477500000001,7.3137374,2.6131718,-23.2307555,16.4295742,9.915552400000001,14.242070400000001
122,86,Rn,7.7942678,-6.9904614,207.989634513,16.665107199999998,6.0446632000000005,6.2607403,-11.3833229,0.20134000000000002,-14.8776867,9.0919656,3.7168786000000003,-26.3434305,13.4948057,8.1931849,13.5124112
121,87,Fr,7.7568985,-4.3928615,207.997139082,17.560705000000002,4.803482,6.7854078,-13.425782300000002,3.2735828000000002,-14.2502338,7.8872253,1.3191572,,17.1787974,9.9088916,15.965993300000001
120,88,Ra,7.7320177,-9.0329208,208.001855012,17.9803156,3.7170902999999997,7.2731333000000005,-14.960107599999999,3.0737042999999997,-17.489612700000002,9.857372300000002,2.7120168,,13.6855996,7.9018052,15.0841001
119,89,Ac,7.6848289,-5.9271868,208.011552251,18.8665353,2.5702287000000004,7.7286302,,6.3209040000000005,,8.4566919,0.0421045,,17.9060484,9.8210567,17.717073
118,90,Th,7.652571600000001,,208.017915348,,1.4555139,8.2020281,,5.8850824,,,1.747158,,13.9140947,7.4454078,16.5305905
130,79,Au,7.7860000000000005,6.38,208.997606,7.732,,0.9450000000000001,11.415000000000001,,2.964,4.391,9.019,16.029,12.620000000000001,11.874,
129,80,Hg,7.813,5.035,208.990757,8.265,19.048000000000002,1.7850000000000001,9.005,-15.399000000000001,0.069,3.416,9.988,7.756,12.741,10.445,6.277
128,81,Tl,7.8333979000000005,3.9697809000000004,208.985351713,8.752992599999999,17.582,2.501,4.6137961,-15.023,0.0324083,4.9659901,7.668356200000001,-0.7610196,13.55346,12.1649901,6.192
127,82,Pb,7.8486488,0.6440152,208.981089978,11.3052413,15.7050701,2.2482291,-1.2485589,-11.6381371,-6.8157406,3.9373726000000002,8.1534241,-8.673524299999999,14.1306696,9.502775100000001,8.9775561
126,83,Bi,7.8479869,-1.8925741,208.980398599,14.3466705,11.8020947,3.1372975000000003,-5.3748157,-8.797439200000001,-8.8606997,7.4597558,3.7990408,-14.4764446,14.9041867,10.3909727,9.6411069
125,84,Po,7.8351882,-3.4822417000000003,208.982430361,15.362950500000002,8.4919884,4.9792314,-7.4249654000000005,-1.9064667,-11.967431699999999,6.9681256000000005,4.7848348,-18.224255000000003,14.3993468,8.5262411,13.0658938
124,85,At,7.8147835,-3.9427237,208.986168701,15.7989274,7.4071607,5.7568804,-9.1016288,-1.3025931000000002,-11.299701800000001,8.485190000000001,2.7035369,-21.7286597,14.9727343,10.1689504,12.7908297
123,86,Rn,7.792175500000001,-5.1589051,208.990401389,16.448943800000002,6.3732911,6.155433100000001,-10.7992896,1.2391868,-14.3474395,7.3569781,3.7601193,-25.336000000000002,14.997239400000002,8.3623938,14.8940211
122,87,Fr,7.7637485,-5.640384500000001,208.995939701,17.0757598,5.1326046,6.7774589,-12.6270309,1.3987858000000002,-13.5813959,9.1885344,1.415726,,15.5634045,10.2148292,14.3036459
121,88,Ra,7.7330177,-6.9866464,209.001994902,17.7983837,4.0849602,7.1430886000000005,-14.537,4.224658499999999,-16.9739322,7.941011400000001,2.765803,,15.4180679,7.969154400000001,16.6375606
120,89,Ac,7.695845500000001,-7.55,209.009495375,18.4439777,2.8840349,7.7297872,,4.2208434,-15.914472700000001,9.9872858,0.172018,,16.0417058,10.143328799999999,15.7381478
119,90,Th,7.656000000000001,,209.017601,,1.697,8.166,,7.378,,8.364,1.655,,15.96,7.774,18.476
131,79,Au,7.764,7.98,210.002877,7.5520000000000005,,,11.927,,3.218,3.161,,17.472,13.891,11.684000000000001,
130,80,Hg,7.799,3.947,209.99431,8.177,19.378,1.5150000000000001,9.428,,0.273,4.7620000000000005,10.359,10.653,11.321,10.204,4.486
129,81,Tl,7.813589,5.4814334,209.990072942,8.6395111,17.915,2.5180000000000002,5.5449092,-14.306000000000001,0.2962599,3.6735210000000005,7.926,2.7251037,14.729218999999999,12.104505300000001,7.04
128,82,Pb,7.835965600000001,0.0634758,209.984188381,9.1225461,16.040963599999998,3.7923827,1.2246306999999998,-13.408,-4.5411583,5.1851735,8.372607400000001,-5.123665,12.732498600000001,11.1700624,7.4054189
127,83,Bi,7.8325424,1.1611549,209.984120237,12.0643899,12.6197263,5.036472799999999,-2.8198055,-8.436083199999999,-6.4972081,4.6046341,4.4663022,-11.4483966,17.6674213,12.5241189,11.8889336
126,84,Po,7.8343462,-3.9809605,209.982873686,14.6264887,8.7824828,5.407530700000001,-6.3482956999999995,-5.6274572,-11.1406047,7.6583631,4.983442,-16.3958982,13.627898300000002,8.965549900000001,12.1453109
125,85,At,7.811663800000001,-2.3673352,209.987147423,15.644834300000001,7.679890400000001,5.6311855,-8.628591,-1.0024815,-11.102368,7.1596442,2.8950556,-20.7361781,16.207915,10.0376563,13.7288574
124,86,Rn,7.7966653,-6.2612558,209.989688862,16.0920108,6.713499,6.1589884,-10.047602500000002,-0.5277204000000001,-13.8939378,8.7350327,4.009962,-23.6642848,13.575944100000001,8.4867729,13.187338500000001
123,87,Fr,7.7631243,-3.7863467,209.996410596,16.8212165,5.4515492000000005,6.6709639,-12.107587,2.2512938,-13.2730665,7.632682,1.6914299000000002,,17.0226881,10.1552887,15.5303757
122,88,Ra,7.7413687,-8.3212403,210.000475406,17.4277312,4.4797142999999995,7.1508409,-13.6166823,2.0949168,-16.4733662,9.486719800000001,3.0639883,,13.8185734,8.155914300000001,14.7239824
121,89,Ac,7.698018200000001,-5.295442,210.009408625,18.1394117,3.1489354,7.586022,,5.257252,-15.702,8.1521259,0.38313240000000004,,17.7469523,10.114146199999999,17.2595017
120,90,Th,7.6690764,,210.015093515,18.771156599999998,2.2463549,8.0689919,,4.9123095,,10.407,2.0743369,,14.009473400000001,7.777347799999999,16.1919352
131,80,Hg,7.777,5.688,210.999581,7.923,,1.324,10.103,,0.785,3.161,10.359,12.042,12.551,10.384,5.756
130,81,Tl,7.7997915,4.4150129,210.993475,8.5758425,18.426000000000002,2.138,5.781117,-16.047,0.5791119,4.9023215,8.067,5.5691921,13.243,12.051463700000001,5.479
129,82,Pb,7.8170079,1.3661041,210.988735288,9.021074500000001,16.461000000000002,3.5695178000000003,1.9394803999999999,-12.482000000000001,-3.7724252000000003,3.835901,8.5349874,-1.7376822,13.8625877,11.1211638,8.4187978
128,83,Bi,7.8197745,0.5733763000000001,210.987268715,9.7431634,12.7922656,6.7504042,-0.2119249,-9.901091599999999,-3.9773744000000004,5.1385294,4.4196582,-7.7188016,16.4662645,14.7534581,10.5374067
127,84,Po,7.8187842000000005,-0.7853012,210.986653171,12.209113799999999,9.3958609,7.5945602,-3.6771627,-4.9930345,-8.5317112,4.5507508,4.929558699999999,-13.2643623,16.5369034,11.3017138,14.9624288
126,85,At,7.8113545,-2.8918615,210.987496226,14.906054200000002,7.9665445,5.9824474,-7.5068767,-4.1442575,-10.1137452,7.74641,2.9831025,-18.790676200000004,15.429630600000001,10.6860712,12.869361999999999
125,86,Rn,7.793941200000001,-4.6150152,210.990600767,15.9569165,6.9672571,5.965454800000001,-9.5871996,-0.0912411,-13.483139600000001,7.2218838,4.0722015,-22.6317258,14.839250400000001,8.5786266,14.3602797
124,87,Fr,7.7683613,-4.972184400000001,210.995555189,16.500806400000002,5.8344835999999995,6.662251400000001,-11.283799499999999,0.5428137000000001,-12.6544711,8.868124400000001,1.8245216,-26.1925403,15.511541900000001,10.37913,13.9759888
123,88,Ra,7.741088700000001,-6.3116152,211.000893049,17.1690065,4.8050229,7.0416957,-13.0445263,3.1476628,-16.0035271,7.6822867,3.113593,,15.3248211,8.3608529,16.1336613
122,89,Ac,7.707468,-6.732911100000001,211.007668846,17.8440378,3.6523129,7.567589700000001,-14.9087408,3.1980221,-14.9873539,9.6919119,0.5883246000000001,,15.9960518,10.2796066,15.4548151
121,90,Th,7.6718506,-8.1758296,211.014896923,18.661,2.5597862,7.9374924,,6.144586500000001,,8.254442800000001,2.1766538,,15.742316500000001,7.9795969,17.794864699999998
120,91,Pa,7.6293948,,211.023674036,,1.370603,8.4810817,,5.9991759,,,-0.7037338999999999,,16.368000000000002,10.2282397,16.9377735
132,80,Hg,7.7620000000000005,4.571,212.003242,7.823,,1.095,10.569,,1.027,4.6610000000000005,,13.389000000000001,11.051,10.114,
131,81,Tl,7.78,5.998,211.998335,8.447000000000001,18.809,1.934,6.567,,0.871,3.544,8.45,7.077,14.46,11.923,6.325
130,82,Pb,7.8043203000000005,0.5690132999999999,211.991895891,8.9631366,16.827,3.2915622,2.8204789000000003,-14.448,-3.7611315,5.1272356,8.7599015,1.1102898,12.408873100000001,10.959918400000001,6.707
129,83,Bi,7.803314,2.2514656,211.99128503,9.468674199999999,13.448889300000001,6.207261900000001,0.510206,-9.328914800000002,-3.7567685,4.3301448,4.9139019,-4.6019445999999995,17.3212932,14.360686,11.1732521
128,84,Po,7.8102438,-1.7412596,211.988867982,10.558984800000001,10.2189215,8.9541948,-1.7101891,-7.1653675,-6.793535299999999,6.008234000000001,5.7992633,-10.1706457,15.1333034,12.7532356,12.8915674
127,85,At,7.7983400000000005,0.0310705,211.990737301,12.7986857,8.4141862,7.8170863,-5.1121506,-4.0580038,-7.9441372,5.0522757,3.4846275,-15.9277487,18.0357179,12.6019211,15.276842199999999
126,86,Rn,7.7947963,-5.143221,211.990703946,15.1970914,7.2841017,6.385072,-8.4604566,-3.515698,-12.5902228,7.9752076,4.300999200000001,-20.770105500000003,14.023687,9.088609,13.3531976
125,87,Fr,7.7668455000000005,-3.3172355,211.99622542,16.3151262,6.1218411,6.528987,-10.815598099999999,0.8422219,-12.4191862,7.4470018,2.0496396,-25.112521,16.799572800000004,10.2891063,15.014177
124,88,Ra,7.7475078,-7.4983626,211.999786619,16.784237400000002,5.171940800000001,7.0317107,-12.309648900000001,1.2675959,-15.4135658,9.1019506,3.3474193,,13.8555525,8.4474367,14.3886888
123,89,Ac,7.7084479,-4.8112864,212.007836442,17.607115099999998,3.9348341000000002,7.539611799999999,-14.2969229,4.1509433,-14.6481143,7.9152032,0.8212411,,17.567568299999998,10.305414800000001,16.728146300000002
122,90,Th,7.6820628,-9.4856366,212.01300157,18.091270700000003,2.9098944,7.9580367,,3.9900453000000002,-18.0126576,9.836828,2.3215699,,14.0576144,8.1300548,15.8990482
121,91,Pa,7.6336289,,212.023184819,,1.7454982,8.410752500000001,,7.1640667,,8.527021000000001,-0.4311556,,18.247809,10.066,18.3980383
133,80,Hg,7.739,6.416,213.008803,7.5520000000000005,,,11.404,,1.68,2.891,,14.853,,10.384,
132,81,Tl,7.7654311,4.9874088,213.001915,8.2808259,,1.589,7.0154818,,1.2614226000000002,4.737,8.525,8.3633327,12.885,11.948,4.75
131,82,Pb,7.7851732,2.028073,212.996560796,8.8532218,17.391000000000002,2.981,3.4499211,-13.512,-3.1569729000000004,3.7259863,8.942,2.4923512000000003,13.585208399999999,10.907453100000001,7.743
130,83,Bi,7.791021700000001,1.4218481,212.99438357,9.5151907,13.7316137,5.9882062,1.3478508999999999,-10.97,-2.9335803,5.1850459,4.9717122,-1.6774711,15.9721483,14.3608135,9.6617271
129,84,Po,7.794024,-0.07399720000000001,212.992857154,10.3636625,10.7384489,8.536138999999999,-0.9575699,-6.3935603,-6.096688,4.3554284,5.824547,-6.9990760000000005,15.9164044,13.0024412,13.7213124
128,85,At,7.7900036,-0.8835727000000001,212.992936593,11.0749665,9.2983476,9.2541513,-3.0253221,-5.7505498,-5.9916203,6.0226908,3.4990843000000003,-12.720551,16.5637779,14.2375933,13.8587854
127,86,Rn,7.7821824,-2.1417493,212.993885147,13.083255300000001,7.841398600000001,8.24515,-6.041506099999999,-2.6155115,-10.2512686,5.1080476,4.3567711000000005,-17.8160564,16.6620494,11.1402056,15.9035131
126,87,Fr,7.7684543,-3.8997568,212.99618441,15.5565211,6.4849504,6.9046577,-9.6952289,-2.2150218,-11.426754800000001,8.1095193,2.1839513000000004,-23.2083936,15.9119372,10.9146197,14.0643019
125,88,Ra,7.746472600000001,-5.7954721000000005,213.000370971,16.628948700000002,5.477055099999999,6.861690800000001,-11.7745502,1.7158054999999999,-15.0253606,7.5269981,3.4274155,,15.1966788,8.5531207,15.5967235
124,89,Ac,7.7155908,-5.9790781,213.006592665,17.145091700000002,4.2965982,7.4982578,-13.513164699999999,2.3680566,-14.0411749,9.2298885,0.9491789,,16.0199666,10.562246100000001,15.1309398
123,90,Th,7.683847,-7.5340866,213.01301147,17.8989247,3.2897045,7.8369514,,5.0298992,-17.5477333,8.0620967,2.4684634,,15.6874295,8.2200839,17.3236712
122,91,Pa,7.6448027000000005,,213.021099644,18.5406678,2.0672330000000003,8.3843916,,5.0656232,,10.013646699999999,-0.25433690000000003,,16.488605,10.4587285,16.536517500000002
134,80,Hg,7.724,5.306,214.012636,7.392,,,11.953,,1.915,4.501,,16.240000000000002,,,
133,81,Tl,7.745,6.648000000000001,214.00694,8.127,,1.36,7.665,,1.597,3.391,9.024000000000001,9.844,14.155000000000001,11.719,
132,82,Pb,7.7723955,1.0177611,213.999803521,8.7767253,17.781,2.692,4.2869537,-15.672,-3.0226661,5.050739,9.2558009,4.136645400000001,12.079,10.759035599999999,5.854
131,83,Bi,7.7734955,3.2691925000000004,213.998710909,9.2254731,14.228,5.6212999,2.1783717,-10.273562,-2.6185791,4.0404272,5.2861532,-0.2424527,17.0589567,14.1562874,10.523621499999999
130,84,Po,7.785116299999999,-1.0908208,213.995201287,10.243200100000001,11.4989849,7.8335408,-0.1503083,-8.5553457,-5.9617688,5.8877716,6.5272727,-4.5627127000000005,14.3587775,12.253199,11.6694419
129,85,At,7.7763632,0.9405125000000001,213.996372331,10.893638800000002,9.839150799999999,8.9878374,-2.4208244,-5.4364519,-5.7545207000000005,4.870948,4.0146038,-9.8124232,17.7010639,13.9173961,14.1263668
128,86,Rn,7.7771023,-3.3613369,213.99536265,11.803080900000001,8.528197800000001,9.2084798,-4.4124045,-4.9551164,-8.836782600000001,6.6950333,5.0291135,-15.014595700000001,15.019291800000001,12.1915823,13.7592306
127,87,Fr,7.757739300000001,-1.0510675,213.998971193,13.584965,6.9081204,8.5888563,-7.3915988,-1.6677766,-9.3752025,5.475445700000001,2.5513493,-20.4182218,18.4116992,12.6610578,16.3352662
126,88,Ra,7.7491719,-6.340531299999999,214.00009956,15.851133,5.8259824,7.272588600000001,-10.6021912,-1.5002818,-14.1196071,8.324134899999999,3.6420311,,14.3195457,9.0971101,14.4944723
125,89,Ac,7.7158874,-4.2616599,214.0069064,17.0089643,4.6286722000000005,7.351864,-13.026622900000001,2.6985001000000004,-13.7581539,7.7790758,1.2012566,,17.3428414,10.4654571,16.219988400000002