N,Z,element,be_per_a,beta_decay_energy,atomic_mass,s2n,s2p,qa,q2b,qep,qbn,s1n,s1p,q4b,qda,qpa,qna
24,21,Sc,8.618941000000001,-2.0620551000000003,44.955907051,21.0268075,19.0748691,-7.9376884,-9.1858798,-12.5797946,-11.5950532,11.3276044,6.892562600000001,-36.093,8.0473584,2.3390272,-0.4038884
23,22,Ti,8.5557321,-7.1238247,44.958120758,25.837311500000002,15.1793357,-6.2972739,-19.4954647,-4.8305076,-23.2735052,9.5329981,8.4832023,-53.418,7.888690700000001,-2.0252081,5.1834293
22,23,V,8.3800394,-12.37164,44.965768498,30.112720000000003,10.2762337,-5.6689974,-26.907,-1.3593776,-26.535861,16.149680500000002,1.6268264,,8.1399564,-1.9180329999999999,5.8809636
21,24,Cr,8.0877286,-14.535,44.97905,33.687,4.7771528,-6.2421787,-33.923,10.7448136,-35.046,14.164221,2.9956935,,9.112363100000001,-7.031000000000001,11.235954
20,25,Mn,7.747,-19.388,44.994654,38.492,1.641,-7.715,,11.539,,20.511,-1.153,,7.7010000000000005,-7.176,8.286
19,26,Fe,7.299,,45.015467,,-1.8,-8.427,,20.541,,,0.341,,7.7490000000000006,,12.994
31,15,P,7.32,22.2,46.02452,4.412,,-21.575,36.575,,18.109,1.191,21.539,58.254,4.241,3.375,-19.783
30,16,S,7.785,14.375,46.000687,6.298,43.248,-18.625,30.411,-43.739000000000004,10.831,4.091,22.609,43.78,0.241,0.464,-18.043
29,17,Cl,8.0807757,16.036306200000002,45.985254926,9.398611500000001,39.423,-17.2517068,21.6789807,-36.984,7.9645344,3.5437222999999998,17.684,28.0266944,6.1800944,3.324567,-13.129
28,18,Ar,8.4123835,5.6426746,45.968039243999996,13.2406307,35.1449609,-14.5584231,13.368354799999999,-33.72,-1.2269295,8.071771700000001,18.7976815,14.357014300000001,1.4185255,-0.7476892,-11.9293922
27,19,K,8.5180428,7.7256802,45.961981584,15.7750678,29.5128982,-13.0070756,6.347713700000001,-24.440356100000002,-2.6730173,6.8696041,12.9320993,1.6619674,7.970137800000001,1.4599364000000001,-5.608016800000001
26,20,Ca,8.6689848,-1.3779665,45.953687726,17.8135161,25.0442915,-11.1418475,0.9886595,-20.6577795,-10.1386065,10.3986975,13.8129373,-13.668039199999999,3.3526951,-1.7001602,-5.4833968
25,21,Sc,8.6220215,2.366626,45.955167034,20.0882444,20.5580876,-9.1645284,-4.6857463,-12.434970799999999,-10.8226951,8.76064,8.238384,-29.3438953,10.4178935,1.5112846,0.4601533
24,22,Ti,8.6564623,-7.0523723,45.952626356,22.7223192,17.2374816,-8.0058918,-14.656698700000002,-10.60501,-20.313145799999997,13.189321099999999,10.344919,-45.338,4.3985728,-3.0760641,-0.0729944
23,23,V,8.4861423,-7.6043264,45.960197389,29.410454,13.8378041,-7.3798098,-24.658149,-3.2925467,-25.6324135,13.260773499999999,5.3546018,,11.1834962,-2.8962509,4.758655200000001
22,24,Cr,8.3038233,-17.0538226,45.968360969,32.1923081,6.500926499999999,-6.7921331,-30.682000000000002,2.2497246,-32.563,18.0280871,4.8741001,,5.0473156,-6.6911577,5.4904225
21,25,Mn,7.9160805000000005,-13.628,45.986669,36.021,3.187611,-7.223,,12.1797225,-34.897,15.509,0.1919175,,11.714957700000001,-5.5840000000000005,11.1450119
20,26,Fe,7.603,,46.001299,,-0.054,-8.275,,13.436,,21.269000000000002,1.099,,4.46,-11.296,8.827
32,15,P,7.2090000000000005,21.61,47.030929,3.293,,-21.885,38.391,,20.099,2.101,,64.522,2.431,4.364,
31,16,S,7.652,16.781,47.00773,5.602,44.468,-19.554000000000002,32.568,,12.864,1.5110000000000001,22.929000000000002,49.545,1.951,0.9550000000000001,-16.464
30,17,Cl,7.992,15.787,46.989715,7.461,40.119,-17.046,26.132,-39.71,12.120000000000001,3.9170000000000003,17.509,34.756,4.471,4.488,-15.044
29,18,Ar,8.311425,10.3447078,46.972767112,11.7391088,36.605000000000004,-15.596729300000002,16.977391500000003,-33.296,1.9753375000000002,3.6673371,18.9212963,19.5703379,3.6060775,-0.0242454,-10.516635599999999
28,19,K,8.5148795,6.632683699999999,46.961661612,15.2389744,32.0273794,-13.9773871,8.6248607,-29.266004000000002,-0.6436901,8.3693703,13.2296979,6.2950879,4.7696266,1.8253338000000001,-9.586606100000001
27,20,Ca,8.6393548,1.9921769999999999,46.954541134,17.6750713,27.1518063,-12.7597706,2.5929463999999998,-19.862381600000003,-8.6543403,7.276373800000001,14.219707099999999,-7.7815727,4.981785,-1.6991125,-4.025003
26,21,Sc,8.6650958,0.6007694,46.952402444,19.407157299999998,22.2991411,-10.186364,-2.3297728,-16.211884,-8.2798913,10.6465173,8.4862038,-21.7704663,7.1861948,1.9959424,-2.9089425
25,22,Ti,8.6612325,-2.9305422,46.951757491,22.0699818,18.703323700000002,-8.9536551,-10.3745191,-9.086973200000001,-15.933033,8.8806607,10.4649397,-37.808,6.8455165,-2.2575217,2.17752
24,23,V,8.5822348,-7.4439769,46.954903558,26.2632643,15.512690500000001,-8.2438356,-19.440693500000002,-7.5343975,-20.606817200000002,13.0024908,5.1677715,-52.627,7.7140036,0.40557170000000003,1.4553675000000001
23,24,Cr,8.407206700000001,-11.9967167,46.962894995,31.1909275,10.1307687,-7.672417800000001,-27.433,2.2762054,-30.216663,13.162840399999999,4.776166900000001,,8.034155700000001,-5.8909586,8.6318955
22,25,Mn,8.1353117,-15.437000000000001,46.975774,33.729,5.2578768,-7.0749344,-33.186,7.220549699999999,-31.848,18.2199463,0.3837767,,7.6592323,-4.280422400000001,6.8881051
21,26,Fe,7.79,-17.75,46.992346,37.68,2.193,-7.5840000000000005,,15.053,,16.411,2.001,,8.561,-9.726,11.939
20,27,Co,7.396,,47.011401,,-1.022,-9.175,,15.749,,,-2.121,,6.923,,8.806000000000001
32,16,S,7.5520000000000005,16.67,48.013301,4.393,,-19.346,34.745,,13.899000000000001,2.882,23.709,56.615,0.26,1.294,-19.054000000000002
31,17,Cl,7.883,18.075,47.995405,6.688,41.698,-17.815,28.004,-40.379,13.016,2.771,18.77,40.224000000000004,5.791,3.924,-14.594
30,18,Ar,8.2436656,9.929555,47.976001,8.7263082,37.573,-15.5756067,21.869940800000002,-36.844,5.2857367,5.0589711,20.063,26.138024700000003,2.0908287999999997,0.7716727,-13.368
29,19,K,8.4342324,11.9403857,47.965341184,13.0131887,33.1274754,-14.2304245,12.2196012,-29.993000000000002,1.9888654,4.6438184,14.2061791,12.193522999999999,8.197579900000001,2.3503745,-8.3755353
28,20,Ca,8.6666916,0.2792155,47.952522654,17.227894199999998,29.0315549,-13.9765233,4.268084,-26.1465648,-7.9593433000000005,9.9515203,15.8018571,-1.4035545999999999,1.8998688,-2.7451689999999997,-8.8076643
27,21,Sc,8.6562097,3.9888685,47.952222903,18.8850761,23.6680959,-11.1475013,-0.0260782,-16.0810726,-7.6377894,8.238558800000002,9.4483888,-15.207439200000001,9.3463335,1.1722023,-2.2420375
26,22,Ti,8.7230122,-4.0149467,47.947940677,20.507318599999998,19.931284100000003,-9.4491378,-5.6716385,-13.437257299999999,-14.557200100000001,11.6266579,11.445080299999999,-30.4843762,3.9794985,-2.5565752,-2.0343192
25,23,V,8.6230686,-1.6566918000000002,47.9522509,23.5447442,17.2943039,-9.086885899999999,-15.181361,-7.4301336000000004,-17.9862303,10.5422534,6.8293642000000006,-46.208,10.361071299999999,-0.6036836,2.2407185
24,24,Cr,8.5722553,-13.5246692,47.954029431,29.4923788,13.2709861,-7.6976429,-24.812737700000003,-5.172672400000001,-28.326255099999997,16.3295384,8.103214600000001,-60.999,4.965390800000001,-6.0708165,1.8353552
23,25,Mn,8.2741924,-11.2880685,47.96854876,33.0215322,6.7986892,-7.9134808,-31.026,5.421454600000001,-30.238,14.801585900000001,2.0225222,,10.8857335,-4.9177873,8.2361997
22,26,Fe,8.0227254,-19.738,47.980667,35.361000000000004,3.1149470999999997,-7.011592800000001,-36.187,9.265546200000001,-36.7,18.95,2.7311704,,5.1199794,-8.165000000000001,7.1526282000000005
21,27,Co,7.595,-16.448,48.001857,,0.43,-8.155,,17.007,,16.961000000000002,-1.57,,11.231,-7.814,12.356
20,28,Ni,7.236,,48.019515,,-2.39,,,18.019000000000002,,,-0.269,,,,9.417
33,16,S,7.4,19.652,49.021891,2.952,,-19.124,37.451,,16.6,0.07,,61.691,2.2920000000000003,2.415,
32,17,Cl,7.785,17.8,49.000794,5.823,42.649,-17.646,30.351,,15.023,3.051,18.939,47.302,4.25,4.964,-16.454
31,18,Ar,8.132,12.551,48.981685,7.836,38.839,-16.145,24.240000000000002,-36.739,7.1530000000000005,2.777,20.069,31.504,3.231,1.539,-12.054
30,19,K,8.3722753,11.6885069,48.968210753,10.0421501,34.609,-13.7738671,16.9509514,-32.62,6.5420539,5.3983318,14.5455398,18.350661,6.4665853,5.0238144,-10.2301448
29,20,Ca,8.594850000000001,5.2624445,48.955662625,15.0979733,30.5106708,-13.9541172,7.2640096000000005,-26.2340467,-4.8672375,5.146452900000001,16.3044917,4.0323494,5.122786100000001,-1.0220179,-5.8823455000000004
28,21,Sc,8.6862805,2.0015652,48.950013159,18.3682408,25.428407500000002,-12.3717195,1.3997096,-21.5669361,-6.1408135,10.1296819,9.626550400000001,-8.942521600000001,6.4930254000000005,1.4412178,-5.5021154
27,22,Ti,8.7111625,-0.6018555,48.947864391,19.7690365,20.7972889,-10.1766978,-3.2316603,-11.6281156,-12.1573253,8.1423786,11.348900100000002,-23.813282400000002,6.4836372,-1.9383139,0.2219996
26,23,V,8.682913500000002,-2.6298047,48.948510509,22.0977232,18.203256399999997,-9.3147513,-10.3422312,-10.747044599999999,-13.2121616,11.555469800000001,6.7581761,-38.182,7.686262200000001,1.0301677,-0.5541113000000001
25,24,Cr,8.613277700000001,-7.712426499999999,48.95133372,26.9118953,14.9726823,-8.7470017,-20.5816222,-4.1283714,-24.1070261,10.5823569,8.1433181,-53.862,7.3855247,-3.3923999,4.442319400000001
24,25,Mn,8.439915000000001,-12.8691957,48.95961335,31.1961855,10.190798000000001,-8.158399900000001,-27.84,-0.4308916,-27.682668000000003,16.394599600000003,2.0875834,,7.6539743,-3.2842998,5.1023736
23,26,Fe,8.1613121,-14.971,48.973429,33.764,4.7655791,-7.6608442,-33.28,10.7816123,-34.552,14.8134724,2.7430569,,8.526453400000001,-7.4689267,10.367242899999999
22,27,Co,7.84,-18.309,48.989501,36.542,1.7910000000000001,-7.2250000000000005,,12.228,-36.029,19.581,-0.9400000000000001,,8.061,-6.126,8.284
21,28,Ni,7.45,,49.009157,,-1.081,-8.303,,19.249,,17.72,0.489,,8.621,,12.966000000000001
33,17,Cl,7.651,20.93,50.008266,4.163,,-17.565,33.428,,16.689,1.111,19.98,52.237,6.021,5.363,-15.464
32,18,Ar,8.054,12.498000000000001,49.985797,7.018,40.198,-16.295,26.359,-40.910000000000004,8.31,4.241,21.259,38.202,1.7610000000000001,1.214,-14.784
31,19,K,8.2885833,13.8613774,49.972380015,9.5860068,36.026,-14.4178198,18.8092677,-33.756,7.5008319000000006,4.1876750000000005,15.957,23.495387299999997,7.3378813,4.5034765,-10.501
30,20,Ca,8.5501639,4.9478903,49.957499215,11.5069985,31.8122453,-12.242891100000001,11.8426373,-29.818,-1.0981011,6.360545600000001,17.2667054,10.6721339,3.4060589,0.9868068,-8.575553900000001
29,21,Sc,8.6334747,6.894747000000001,49.952187437,16.1756733,26.8305805,-11.5481068,4.6861196000000005,-22.214595700000004,-4.0444262,6.0459914,10.526088900000001,-1.910234,10.398554400000002,2.6716003,-3.1787365
28,22,Ti,8.7557227,-2.2086273999999997,49.944785622,19.0815518,21.784941800000002,-10.717173500000001,-1.1705034,-17.420835800000003,-11.541028700000002,10.939173199999999,12.1583913,-16.955407599999997,3.7830229,-2.2309697,-3.4407997
27,23,V,8.6959032,1.038124,49.947156681,20.8878711,19.2970989,-9.886512699999999,-6.5963536000000005,-9.949764,-11.9622061,9.332401299999999,7.9481988,-31.6338368,9.980518700000001,0.5784271,0.7600047
26,24,Cr,8.7010188,-7.6344776,49.946042209,23.582686900000002,16.3463544,-8.5580106,-15.7849043,-8.9863228,-20.712756600000002,13.0003301,9.5881783,-46.802,4.927448,-3.3902391,0.3226501
25,25,Mn,8.532682300000001,-8.1504267,49.954238157,29.4728786,12.7268236,-7.975905399999999,-25.0374833,-1.9537008,-25.9474747,13.078279,4.5835055,,10.9052338,-3.1997384,5.0265854
24,26,Fe,8.3540268,-16.8870566,49.962988,32.6105204,6.233088700000001,-7.429805099999999,-31.017,3.5669212000000003,-32.768,17.797048,4.1455053,,5.5309913,-7.0460284,5.7330353
23,27,Co,8.000638700000001,-14.13,49.981117,35.462,2.8707013000000003,-7.5965711,,12.7415513,-34.19,15.881,0.12764440000000002,,11.1299794,-5.596,10.6233752
22,28,Ni,7.702,,49.996286,37.78,0.029,-7.094,,14.002,,20.061,0.969,,5.521,-9.215,9.316
34,17,Cl,7.53,20.78,51.015341,2.592,,-16.945,36.806,,19.449,1.481,,57.54,4.61,6.764,
33,18,Ar,7.922000000000001,16.026,50.993033,5.572,41.459,-16.115000000000002,29.843,,11.167,1.331,21.478,43.243,3.481,2.6550000000000002,-13.233
32,19,K,8.221335,13.8168529,50.975828664,9.046597100000001,37.833,-15.36,20.734896100000004,-37.504,9.0024553,4.8589221,16.574,29.6876485,5.256,4.7035254,-12.589
31,20,Ca,8.4769135,6.9180432000000005,50.960995663,11.1749431,33.85,-13.389951499999999,13.4006554,-30.391000000000002,0.13349270000000002,4.8143976,17.893428,15.1184049,3.9899931000000004,0.8162276,-8.330980499999999
30,21,Sc,8.5972213,6.482612199999999,50.953568838,12.8305419,28.2167992,-9.963287000000001,8.9527524,-24.8114712,0.1101965,6.784550500000001,10.950093800000001,4.9928724,8.7604568,5.8385701,-5.3194686
29,22,Ti,8.7089912,2.4701402,50.946609468,17.3115889,23.010904500000002,-9.813215399999999,1.7177495,-17.432706,-8.5810431,6.3724156999999995,12.484815699999999,-9.5437797,7.5402891,-0.3648266,0.1383049
28,23,V,8.7420852,-0.7523907000000001,50.943957664,20.3835847,20.2186003,-10.291178700000001,-3.95988,-14.954955900000002,-10.013059300000002,11.0511834,8.060209,-24.860958900000004,7.071714,1.1539016,-2.0526199000000003
27,24,Cr,8.7119923,-3.2074893,50.944765388,22.260998700000002,17.4646444,-8.9380185,-11.261529200000002,-7.3078182,-16.8951462,9.2606686,9.516445599999999,-39.801,7.2222492,-2.1086543,2.6886394
26,25,Mn,8.633760200000001,-8.05404,50.94820877,26.765935900000002,14.8590107,-8.6610715,-20.9010789,-6.3089564000000005,-21.8380836,13.6876569,5.2708323,,7.7999336999999995,-0.5578569,1.8811819
25,26,Fe,8.4604977,-12.8470389,50.956855137,31.5810916,9.434775400000001,-8.0510084,-28.539,2.7832076000000003,-30.6711002,13.7840436,4.8512699,,8.1415472,-6.0284861,8.2785301
24,27,Co,8.1932549,-15.692,50.970647,33.705,4.3001629999999995,-7.2006861,,7.995769,-31.954,17.8240613,0.1546577,,8.1193904,-4.4695157,7.6008998000000005
23,28,Ni,7.87,,50.987493,36.323,1.477,-6.945,,15.537,,16.262,1.35,,8.84,-8.516,12.005
34,18,Ar,7.827,15.758000000000001,51.998519,4.292,,-16.194,32.887,,13.065,2.961,22.959,48.098,1.6320000000000001,2.745,-16.124
33,19,K,8.1150303,17.1286431,51.981602,7.552412,39.415,-15.282,23.3859319,-38.717,11.1233631,2.6934898,17.937,34.3054032,6.803,4.787,-12.231
32,20,Ca,8.429382100000002,6.2572889,51.963213646,10.8196776,35.614,-14.3362605,15.2114261,-35.066,0.9127632,6.00528,19.0397859,21.1532364,2.1723881,0.2092794,-11.56
31,21,Sc,8.5346695,8.9541372,51.95649617,12.1290762,29.3736499,-10.6639943,10.9194712,-25.2970748,1.1380865,5.3445257,11.4802219,10.1878261,9.7764767,5.6404974,-5.2656625
30,22,Ti,8.691819299999999,1.9653340000000001,51.946883509,14.1884664,24.4664097,-7.6777458,5.9418103,-20.4343591,-5.3459104,7.8160507,13.5163159,-1.1456023,5.7702298,1.9488045999999999,-2.5312928
29,23,V,8.714569,3.9764763,51.944773636,18.362427800000003,21.4838534,-9.3638644,-0.7316452000000001,-15.4816499,-8.0636352,7.3112445,8.9990377,-17.099053100000003,10.6996427,1.9850358000000001,0.7658176
28,24,Cr,8.7759946,-4.7081214000000005,51.940504714,21.3007801,18.5655827,-9.3514721,-7.0874125999999995,-12.975513999999999,-15.247600700000001,12.040111500000002,10.5053737,-32.8596523,4.5145391,-2.593296,-1.2090935
27,25,Mn,8.6704087,-2.3792912000000004,51.94555909,24.2271362,16.0660887,-8.6582974,-16.3674079,-5.7972523,-18.5935193,10.539479300000002,6.5496431,-48.832,10.2607845,-0.5149793,2.8971724
26,26,Fe,8.6096079,-13.9881167,51.948113364,29.998271799999998,12.648673500000001,-7.9356981,-25.7722397,-4.1703519,-29.061267,16.2142281,7.3778410999999995,,5.0055981,-5.8481147,2.6466588000000004
25,27,Co,8.325560600000001,-11.784123,51.963130224,32.897211600000006,6.2950343,-7.4722505,-32.464,6.6102756000000005,-30.765,15.0731503,1.4437644,,10.8432881,-4.729193599999999,8.922349
24,28,Ni,8.083897700000001,-20.68,51.975781,35.243,2.6613381,-6.9761961,,10.3403585,,18.981,2.5066803,,5.7403545000000005,-7.916,7.837276300000001
23,29,Cu,7.671,,51.997982,,-1.1320000000000001,-6.034,,18.173000000000002,,,-2.481,,12.291,-5.545,13.546000000000001
35,18,Ar,7.6770000000000005,19.086000000000002,53.00729,2.862,,-16.025,36.178,,15.857000000000001,-0.099,22.858,53.672000000000004,3.211,3.955,
34,19,K,8.0228488,17.0919853,52.9868,5.9229015,41.164,-15.46,26.4738324,-41.944,13.8992313,3.2294117,18.205000000000002,39.5559528,4.905,5.798,-14.349
33,20,Ca,8.330577799999999,9.381847100000002,52.968451,9.1980339,37.476,-14.752,17.4937256,-35.297000000000004,3.0645349,3.1927539,19.53905,25.899910100000003,3.8385563000000005,1.2042004,-10.511000000000001
32,21,Sc,8.4928325,8.1118785,52.958379173,11.661837799999999,30.8320399,-11.582974700000001,13.0821204,-28.920897099999998,2.636825,6.317312200000001,11.792254100000001,15.9207952,8.2735621,5.6837308,-7.3952997
31,22,Ti,8.631125599999999,4.9702419,52.949670714,13.2911042,25.1270656,-8.0063463,8.4061845,-19.9041326,-3.5097194,5.4750535000000005,13.6468437,4.0660502,7.0797268,2.5197425,-1.6458008
30,23,V,8.7101425,3.4359425999999997,52.94433494,15.7912058,23.1792643,-7.7141437999999996,2.8386747,-18.6170856,-4.5034851,8.479961300000001,9.6629484,-9.192299,8.592097100000002,4.4442476,-1.6681523999999999
29,24,Cr,8.7602103,-0.5972679000000001,52.940646304,19.9795392,20.132594700000002,-9.1485212,-4.3401343,-13.098891,-12.6475491,7.9394277,11.1335569,-25.6567902,7.626294700000001,-1.2003224000000001,1.7906520000000001
28,25,Mn,8.7341798,-3.7428664,52.941287497,22.5897606,17.0651866,-9.1531088,-12.0309738,-10.5362891,-14.4295724,12.0502812,6.5598127999999996,-41.551,7.471171900000001,0.4350695,0.1792925
27,26,Fe,8.648798500000002,-8.2881073,52.945305629,26.9009341,14.0747109,-8.0400472,-21.3166559,-2.8169464,-24.6748227,10.686706000000001,7.5250677999999995,,8.006549,-3.4565417000000003,4.9602829
26,27,Co,8.477657800000001,-13.028548500000001,52.954203278,31.459865699999998,8.9940928,-7.4643663,-29.52,0.7630395,-28.1708383,16.3867154,1.6162517,,8.2406164,-3.318861,5.6139127
25,28,Ni,8.2170749,-16.491,52.96819,34.123,4.0195842,-7.3050135,,11.4122969,-35.822,15.1422898,2.5758198,,8.422126,-7.1773691,10.4920345
24,29,Cu,7.891,,52.985894,,0.375,-5.785,,13.915000000000001,,19.331,-2.1310000000000002,,9.221,-4.816,10.096
35,19,K,7.891,20.01,53.994471,4.155,42.088,-15.275,29.288,,16.166,0.926,19.23,44.748,6.94,6.204,-13.794
34,20,Ca,8.2474967,9.2773463,53.972989,7.0369518,38.359,-14.355,20.5832252,-39.24,5.5376493,3.8441978,20.1538361,31.7747919,2.6878483,2.2189247,-13.024000000000001
33,21,Sc,8.4048115,11.3058789,53.963029359,10.057009200000001,31.8782471,-11.1349967,15.4603337,-29.4311824,4.3721815,3.739697,12.3391971,21.1203131,10.5391451,6.758431300000001,-6.2760746
32,22,Ti,8.5996917,4.154454800000001,53.950892,12.4087509,26.055483000000002,-8.5794981,11.1915667,-23.645076000000003,-1.9634555,6.9336974,14.2632289,10.510803,5.4905551,2.3705957,-3.7651006000000002
31,23,V,8.6621382,7.0371118,53.946432009,14.5978717,23.9526489,-7.7860627000000004,5.6599793,-18.4176838,-2.6819677000000004,6.117910299999999,10.305805200000002,-1.8881995999999999,10.2902374,4.698753,-1.0015122
30,24,Cr,8.777967199999999,-1.3771324999999999,53.938877359,17.6585072,22.0356236,-7.9284276,-0.6807637,-17.342917099999998,-10.316347400000001,9.719079599999999,12.3726752,-17.657067299999998,5.2184596,0.1317814,-1.5560119
29,25,Mn,8.7379768,0.6963688,53.940355772,20.9894962,18.693157,-8.7599225,-7.548179,-10.9955427,-12.6820813,8.939214900000001,7.5596001,-34.318,10.572068400000001,0.7565232,2.2912609
28,26,Fe,8.7363846,-8.244547800000001,53.939608189,24.0651561,15.4130495,-8.4181672,-16.976303500000004,-8.2559689,-21.6665575,13.3784501,8.8532367,-50.553000000000004,5.1675782,-3.1473348999999997,0.8425014
27,27,Co,8.5692199,-8.7317558,53.948459075,29.8087251,11.876623200000001,-7.808097,-26.77,-0.6086889999999999,-26.4505582,13.4220097,4.3515554000000005,,11.032834800000002,-2.9568271,5.8795599
26,28,Ni,8.3930328,-18.038,53.957833,32.861092299999996,5.5241586,-7.226768,-33.576,4.3802004,-34.21,17.718802500000002,3.9079069,,5.7764738,-7.0721102,6.5572757
25,29,Cu,8.045,-15.538,53.977198,35.503,1.474,-6.075,,14.13,,16.172,-1.102,,12.031,-4.726,11.749
24,30,Zn,7.742,,53.993879,,-2.2800000000000002,-4.667,,16.64,,,-0.149,,6.889,,11.595
36,19,K,7.792,19.121,55.000505,3.3770000000000002,,-16.245,31.313000000000002,,17.56,2.451,19.379,49.596000000000004,4.391,6.714,-16.243000000000002