N,Z,element,be_per_a,beta_decay_energy,atomic_mass,s2n,s2p,qa,q2b,qep,qbn,s1n,s1p,q4b,qda,qpa,qna
35,23,V,8.457658,11.590049,57.956626932,10.38951,30.12743,-8.93577,15.42581,-26.69485,4.05163,4.05962,13.77509,19.44541,9.629100000000001,6.13039,-4.596
34,24,Cr,8.643998,3.835759,57.944184502,12.84943,27.249689999999998,-8.79474,10.16331,-25.36514,-2.57687,7.53842,14.86732,8.23694,4.87389,2.0168399999999997,-4.67731
33,25,Mn,8.696643,6.327553,57.940066646,15.05866,24.250619999999998,-8.3593,4.0196,-18.703080000000003,-3.71704,6.41263,10.59183,-4.15984,10.16825,4.14621,-1.03657
32,26,Fe,8.792250000000001,-2.3079549999999998,57.933273738,17.69066,21.44805,-7.64526,-1.92637,-16.91938,-10.880870000000002,10.044590000000001,11.95783,-19.85637,5.46723,0.42136,-1.399
31,27,Co,8.738968999999999,0.38158600000000004,57.935751429,19.94939,17.513560000000002,-6.71445,-8.17943,-9.64988,-11.83464,8.57291,6.95429,-36.307,11.47073,2.4981999999999998,3.51166
30,28,Ni,8.732059,-8.561019,57.93534178,22.46384,14.1996,-6.39916,-17.93,-7.33588,-20.99118,12.21623,8.17215,-53.148,6.522460000000001,-1.33481,2.89896
29,29,Cu,8.570967000000001,-9.368981,57.944532413,29.167330000000003,10.20526,-6.0826899999999995,-28.128,0.38887,-27.189,12.43016,2.87286,,12.95062,-1.46782,8.008560000000001
28,30,Zn,8.395944,-18.759,57.954590428,33.052,2.96915,-5.44535,-35.218,6.49612,-35.36,17.82,2.27883,,7.05509,-5.79929,8.68351
27,31,Ga,8.059000000000001,-16.459,57.974728999999996,36.293,-0.525,-4.554,,16.48,,16.601,-1.721,,12.561,-4.105,13.742
26,32,Ge,7.7620000000000005,,57.992399,,-3.732,-3.233,,18.181,,,-0.641,,7.0200000000000005,,13.137
38,21,Sc,7.9670000000000005,15.208,58.98894,5.449,,-13.435,27.53,,12.736,3.498,15.672,45.223,7.283,8.46,-12.583
37,22,Ti,8.212,12.322000000000001,58.972614,7.737,33.213,-9.584,22.576,-30.88,6.821,2.471,17.923000000000002,35.155,6.197,4.206,-5.966
36,23,V,8.407555,10.253745,58.959385659,9.561200000000001,31.414080000000002,-10.09758,17.69331,-30.245,6.08847,5.50158,14.011000000000001,24.39769,6.794420000000001,6.3520900000000005,-7.33335
35,24,Cr,8.568087,7.43956,58.94837781,11.70369,28.748070000000002,-8.84259,12.579049999999999,-24.265,-0.32952,4.16528,14.97298,13.070950000000002,7.0385,2.9331799999999997,-3.11931
34,25,Mn,8.680921,5.139485,58.940391113,14.181700000000001,25.68981,-8.80565,6.70439,-22.41254,-1.44152,7.76908,10.82249,0.83301,7.71019,4.62374,-3.72404
33,26,Fe,8.754771000000002,1.5649030000000002,58.934873649,16.6256,22.718040000000002,-7.98001,0.4919,-15.961969999999999,-8.888959999999999,6.58101,12.12622,-13.449250000000001,7.53225,1.11079,0.2666
32,27,Co,8.768035,-1.073002,58.933193656,19.02678,19.3214,-6.94221,-5.87138,-13.691120000000002,-10.072280000000001,10.45387,7.36357,-28.47,8.66294,3.24143,0.32823
31,28,Ni,8.736588,-4.79838,58.934345571,21.21551,15.55281,-6.10032,-13.94116,-6.29056,-17.560299999999998,8.99928,8.59852,-45.287,8.89966,-0.25225000000000003,5.09678
30,29,Cu,8.642,-9.142775,58.939496844,25.19208,11.590700000000002,-4.75336,-22.598,-3.80014,-22.1309,12.76192,3.41855,,10.436309999999999,2.4132700000000002,5.32848
29,30,Zn,8.473777,-13.455,58.949312017,30.808,5.70966,-4.30462,-31.346,5.724220000000001,-31.747,12.98812,2.8368,,10.80414,-3.7084699999999997,12.33839
28,31,Ga,8.232,-17.89,58.963757,34.893,1.029,-4.55,,10.619,-34.751,18.292,-1.25,,9.501,-3.5060000000000002,10.529
27,32,Ge,7.916,,58.982963,,-2.102,-3.724,,19.14,,16.861,-0.381,,9.851,-7.6160000000000005,15.166
39,21,Sc,7.865,18.278,59.99565,5.319,,-14.404,29.19,,13.387,1.821,,48.916000000000004,8.578,7.686,
38,22,Ti,8.157,10.912,59.976028,7.362,34.989,-10.857000000000001,24.34,,7.431,4.891,19.316,39.083,3.257,3.5300000000000002,-9.809000000000001
37,23,V,8.32545,13.427621,59.96431329,8.98284,32.944,-10.81461,19.72598,-30.229,6.77249,3.4812600000000002,15.021,28.40835,8.579,5.53773,-6.59968
36,24,Cr,8.536205,6.298361,59.949898146,10.82041,30.137,-9.77444,14.743440000000001,-28.449,0.78443,6.655130000000001,16.126530000000002,17.80354,4.4429799999999995,2.60793,-7.10754
35,25,Mn,8.628138000000002,8.445079,59.943136576,13.28301,27.14413,-9.237969999999999,8.68237,-22.42489,-0.37445,5.51393,12.171149999999999,5.3772,9.73467,4.42082,-2.90809
34,26,Fe,8.755851000000002,0.237293,59.934070411,15.400540000000001,23.99916,-8.55293,3.0601,-20.61623,-7.254630000000001,8.81953,13.17667,-7.2386800000000004,5.12535,0.93729,-3.24191
33,27,Co,8.746766,2.8228090000000003,59.933815667,17.945790000000002,20.40069,-7.16369,-3.30517,-13.41396,-8.56492,7.49192,8.274469999999999,-22.06,11.215610000000002,3.3955900000000003,1.48234
32,28,Ni,8.780774,-6.127982,59.930785256,20.38701,16.895950000000003,-6.29095,-10.29878,-11.097280000000001,-16.18611,11.38773,9.53238,-37.383,6.08485,-0.2635,1.3551199999999999
31,29,Cu,8.665602000000002,-4.170796999999999,59.937363916,22.82005,13.07592,-4.7296499999999995,-18.755,-3.4044000000000003,-19.2009,10.05813,4.477399999999999,-52.875,12.59441,2.60275,6.6468300000000005
30,30,Zn,8.58305,-14.584,59.94184145,28.01823,8.52354,-2.6917199999999997,-27.085,-0.30660000000000004,-28.486,15.03011,5.104979999999999,,8.20419,-2.0014000000000003,7.555890000000001
29,31,Ga,8.327,-12.501,59.957498,32.193,2.501,-3.372,-34.121,9.479000000000001,-31.792,13.902000000000001,-0.336,,13.419,-2.176,13.365
28,32,Ge,8.106,-21.62,59.970918,36.152,-0.631,-4.125,,12.837,,19.291,0.619,,7.1610000000000005,-7.216,11.107000000000001
27,33,As,7.732,,59.994128,,-3.492,-4.505,,21.001,,,-3.111,,12.321,,15.187000000000001
40,21,Sc,7.787,17.281,61.001,4.909,,,31.438000000000002,,15.19,3.088,,52.674,,7.714,
39,22,Ti,8.057,14.157,60.982448,6.982,,-11.9,26.126,,8.821,2.091,19.587,42.571,4.664,3.39,-8.784
38,23,V,8.276439,11.9688,60.96725,8.81705,34.782000000000004,-11.93547,21.235689999999998,-33.743,8.09183,5.33579,15.466000000000001,32.39164,5.714,5.468,-9.984
37,24,Cr,8.459824000000001,9.266893,60.954400963,10.5321,31.543,-10.98451,16.445259999999998,-27.434,2.4213899999999997,3.87697,16.522240000000004,21.74668,6.06759,2.79058,-5.719
36,25,Mn,8.598915000000002,7.178372,60.944452544,12.359440000000001,28.48805,-9.75359,11.155940000000001,-25.78914,1.59958,6.8455,12.36152,10.241940000000001,7.05444,5.113729999999999,-5.69397
35,26,Fe,8.703768,3.9775720000000003,60.936746244,14.39832,25.41268,-8.82071,5.30141,-19.53989,-5.3415,5.57879,13.241530000000001,-2.57159,7.3156300000000005,1.77112,-1.28229
34,27,Co,8.756148,1.323839,60.932476145,16.81099,21.950689999999998,-7.836729999999999,-0.91401,-17.219099999999997,-6.49626,9.31907,8.77402,-15.76341,8.477549999999999,4.1211,-1.4241
33,28,Ni,8.765025,-2.2378449999999996,60.931054945,19.20783,18.13504,-6.46498,-7.873,-10.09786,-13.94809,7.820100000000001,9.86057,-30.862000000000002,8.71861,0.48931,3.57961
32,29,Cu,8.715513999999999,-5.635156,60.933457371,21.76837,14.33229,-5.06341,-14.8494,-7.62272,-15.88104,11.71024,4.79991,-45.084,9.883450000000002,3.10874,3.5095
31,30,Zn,8.610308999999999,-9.214245000000002,60.93950696,25.275990000000004,9.77014,-2.68999,-22.989,0.83524,-24.830000000000002,10.24588,5.29274,,10.720229999999999,0.18288,9.52624
30,31,Ga,8.446431,-13.775,60.949398859,29.517,5.3542700000000005,-2.25069,-30.235,3.9215100000000005,-28.116,15.616,0.24928999999999998,,10.7917,0.028140000000000002,10.17947
29,32,Ge,8.208,-16.459,60.964187,33.632,0.722,-3.234,,13.526,-35.961,14.341000000000001,1.058,,11.111,-4.956,14.586
28,33,As,7.925,,60.981857,,-2.282,-4.315,,15.401,,19.502,-2.9010000000000002,,9.681000000000001,-4.956,12.286
40,22,Ti,7.995,12.977,61.986581,6.313,,-13.006,28.395,,9.935,4.221,20.72,46.378,2.263,2.6670000000000003,
39,23,V,8.192,15.419,61.97265,8.377,36.002,-13.025,23.048000000000002,-33.697,8.928,3.041,16.416,35.948,7.564,4.898,-9.528
38,24,Cr,8.428068999999999,7.628996,61.956097451,10.368020000000001,33.143,-12.21,17.98309,-31.834,2.77584,6.49105,17.677500000000002,25.85136,3.0578000000000003,1.80111,-9.739
37,25,Mn,8.538499,10.354091,61.947907386,11.69865,29.859939999999998,-10.547120000000001,12.90033,-25.3065,2.32522,4.853149999999999,13.337700000000002,14.26347,8.856430000000001,4.42586,-5.04554
36,26,Fe,8.692881999999999,2.5462350000000002,61.936791812,13.60767,26.78641,-9.31116,7.868270000000001,-23.69179,-4.0513,8.02887,14.4249,2.28992,4.8007,1.51133,-5.1458900000000005
35,27,Co,8.721332,5.32204,61.934058317,15.91661,23.034290000000002,-8.02164,1.36314,-16.971130000000002,-5.273689999999999,6.59753,9.792760000000001,-9.43738,10.69954,4.10458,-0.25256
34,28,Ni,8.794553,-3.958896,61.928344871,18.41584,19.91125,-7.01613,-5.57835,-15.114799999999999,-12.83358,10.59573,11.13723,-25.006,5.61479,0.34744,-0.43512
33,29,Cu,8.718081,-1.6194549999999999,61.932594921,20.58492,15.71506,-5.3651800000000005,-10.80052,-7.17833,-14.50984,8.87468,5.85449,-38.467,12.3965,3.23334,5.08868
32,30,Zn,8.679343000000001,-9.181066000000001,61.934333477,23.13627,11.27279,-3.36414,-19.428,-4.23504,-22.10463,12.89039,6.47288,,7.88797,0.05441,5.635140000000001
31,31,Ga,8.518642,-10.247,61.944189757,28.539,8.21971,-2.7441,-27.667,2.70818,-26.699,12.92356,2.92697,,12.89824,0.0927,10.01782
30,32,Ge,8.341,-17.42,61.95519,30.793,2.144,-1.866,,7.32,-32.911,16.452,1.895,,8.561,-3.116,11.122
29,33,As,8.047,,61.973891,34.993,-0.6920000000000001,-3.206,,15.525,,15.492,-1.75,,13.48,-3.586,15.086
41,22,Ti,7.889,16.14,62.993827,5.543,,,30.257,,11.655,1.322,,49.886,4.029,3.166,
40,23,V,8.133000000000001,14.117,62.9765,7.526,37.4,-14.013,24.997,,10.934000000000001,4.485,16.679000000000002,39.961,5.17,5.304,-12.192
39,24,Cr,8.344828,10.879579,62.961344384,9.67488,34.236000000000004,-12.922,19.62815,-30.797,4.44517,3.18383,17.82,29.5053,5.20976,2.09854,-8.031
38,25,Mn,8.505101000000002,8.748567999999999,62.949664675,11.28757,30.95857,-11.47995,14.96439,-28.7,3.91968,6.43441,13.28106,18.692700000000002,6.298979999999999,4.64658,-7.9987
37,26,Fe,8.631549000000001,6.215819000000001,62.9402727,12.85776,27.73833,-9.97478,9.87715,-22.02963,-2.28266,4.82889,14.40063,6.57778,6.817310000000001,2.19637,-3.31964
36,27,Co,8.717795,3.6613350000000002,62.933599744,15.09601,24.68726,-8.751040000000001,3.72831,-20.61645,-3.17643,8.498479999999999,10.262360000000001,-5.30435,7.77986,4.42563,-3.2371
35,28,Ni,8.763493,0.06697700000000001,62.929669139,17.4335,21.17022,-7.27289,-3.29938,-13.9237,-10.79667,6.837770000000001,11.37746,-18.59156,8.0961,1.00159,1.5466400000000002
34,29,Cu,8.752138,-3.366355,62.929597236,19.73833,17.25963,-5.77496,-9.03266,-11.44444,-12.4831,10.86364,6.1224,-32.08,9.35296,3.75742,1.71696
33,30,Zn,8.686285,-5.666304,62.933211167,22.00713,12.56943,-3.4816100000000003,-15.29218,-2.75605,-18.297810000000002,9.11674,6.7149399999999995,,10.48147,0.99579,7.9061200000000005
32,31,Ga,8.583926,-9.625877000000001,62.939294195,25.55507,9.14097,-2.61368,-23.047,-1.04864,-22.878,12.6315,2.6680900000000003,,10.512620000000002,2.4913000000000003,7.44445
31,32,Ge,8.418716,-13.421000000000001,62.949628,29.704,5.15025,-2.13058,,6.95779,-30.672,13.252,2.2232800000000004,,10.92425,-2.467,12.89953
30,33,As,8.193,,62.964036,32.743,0.9440000000000001,-2.165,,11.198,,17.251,-0.9510000000000001,,10.57,-1.546,11.737
42,22,Ti,7.8180000000000005,15.295,63.9989,4.668,,,32.455,,12.794,3.346,,53.945,,2.908,
41,23,V,8.045,17.16,63.98248,6.986,,-14.693,26.669,,11.616,2.501,17.859,43.473,6.891,4.894,-11.605
40,24,Cr,8.301058000000001,9.509277,63.964058,8.72743,35.558,-13.575000000000001,21.489790000000003,-35.019,5.335979999999999,5.5436000000000005,18.879,33.61916,2.707,1.89073,-11.484
39,25,Mn,8.437417,11.98051,63.95384937,10.607709999999999,32.091,-12.17199,16.80329,-28.388,4.575270000000001,4.1733,14.27053,22.435509999999997,8.61673,4.35025,-6.8362
38,26,Fe,8.612388000000001,4.822785,63.940987763,12.234129999999999,28.652520000000003,-10.724879999999999,12.12938,-26.25104,-1.1894200000000001,7.40524,15.371459999999999,11.034469999999999,4.26522,1.6366300000000003,-6.84791
37,27,Co,8.67552,7.306592,63.935810291,14.51068,25.846310000000003,-9.24931,5.63222,-20.19425,-2.35087,6.0122100000000005,11.445680000000001,-0.95951,9.796520000000001,3.99222,-2.40381
36,28,Ni,8.777460999999999,-1.674376,63.927966341,16.49523,22.798810000000003,-8.11082,-1.09491,-18.75227,-9.59049,9.657459999999999,12.53645,-12.783430000000001,5.03617,0.6632,-2.5320300000000002
35,29,Cu,8.739075000000001,0.579469,63.929763857,18.77975,18.578200000000002,-6.1991499999999995,-6.5917200000000005,-10.86208,-11.28247,7.91611,7.20074,-25.892,12.03258,3.66141,3.11992
34,30,Zn,8.735905,-7.171194000000001,63.929141772,20.97868,13.83563,-3.95581,-11.68852,-7.78021,-17.52824,11.861930000000001,7.713229999999999,-39.304,7.49422,0.8441000000000001,3.86429
33,31,Ga,8.611631,-4.517325,63.936840365,22.98855,10.62334,-2.9126,-19.301000000000002,-0.54204,-19.98292,10.35705,3.90839,,13.04596,2.38014,8.79764
32,32,Ge,8.528823000000001,-14.783,63.941689913,28.718,7.7254700000000005,-2.5660700000000003,-27.615000000000002,0.60893,-28.887,15.4656,5.05737,,8.38222,-2.31678,7.679810000000001
31,33,As,8.286,-12.832,63.95756,31.355,2.123,-2.367,,9.726,,14.103,-0.1,,12.919,-1.309,13.249
30,34,Se,8.073,,63.971336,,-0.462,-2.036,,12.932,,,0.489,,8.331,-4.936,12.306000000000001
42,23,V,7.976,16.44,64.987354,6.032,,-15.136000000000001,29.188,,13.629,3.531,18.044,47.406,4.681,5.5840000000000005,
41,24,Cr,8.217,12.748000000000001,64.969705,8.355,37.047000000000004,-14.295,22.998,-34.484,6.698,2.811,19.189,36.906,4.381,2.121,-10.073
40,25,Mn,8.400681,10.250557,64.95601975,10.22292,33.655,-12.88583,18.21786,-31.937,5.930890000000001,6.04962,14.77655,26.29632,5.75094,4.79168,-9.845
39,26,Fe,8.546346,7.967303,64.945015324,11.72491,29.78836,-11.167580000000001,13.90779,-25.02711,0.50312,4.31967,15.51783,14.694120000000002,6.3799600000000005,2.17012,-4.67653
38,27,Co,8.656884,5.940487,64.936462073,13.47639,26.87609,-9.86799,8.07846,-23.48513,-0.15759,7.464189999999999,11.504620000000001,3.4723100000000002,7.16123,4.5569,-5.01484
37,28,Ni,8.73624,2.137975,64.930084697,15.755540000000002,24.068,-8.63011,0.7863300000000001,-17.44511,-7.772460000000001,6.09808,12.62233,-8.64747,7.436560000000001,1.1626500000000002,-0.60124
36,29,Cu,8.757095999999999,-1.3516400000000002,64.927789487,17.82654,19.99016,-6.79051,-4.6061499999999995,-14.760299999999999,-9.33096,9.91043,7.45371,-20.326610000000002,8.95992,4.34672,-0.19297999999999998
35,30,Zn,8.724264999999999,-3.2545129999999998,64.929240532,19.84126,14.97719,-4.11503,-9.4338,-6.102069999999999,-15.15052,7.9793199999999995,7.77644,-32.892,10.378540000000001,1.73946,6.4807
34,31,Ga,8.66216,-6.179291,64.932734395,22.253049999999998,11.655700000000001,-3.09836,-15.72046,-4.52193,-16.413330000000002,11.896,3.94246,,10.2667,3.37452,5.77632
33,32,Ge,8.555058,-9.541165000000001,64.939368137,25.699630000000003,8.84276,-2.55423,-23.459,2.23683,-25.017,10.23404,4.93437,,10.77968,0.37275,10.33616
32,33,As,8.396234,-13.917,64.949611,29.579,4.967899999999999,-2.22731,,4.606800000000001,-28.308,15.476,-0.08947,,10.69497,-0.333,10.69626
31,34,Se,8.17,,64.964552,,0.676,-2.085,,14.007,,14.391,0.776,,11.191,-3.835,14.367
43,23,V,7.884,19.11,65.993977,5.433,,,31.14,,14.538,1.9020000000000001,,50.798,6.125,5.0040000000000004,
42,24,Cr,8.161,12.030000000000001,65.973462,7.383,38.273,-14.645,25.348,,8.176,4.572,20.229,41.286,2.311,2.0340000000000003,-13.323
41,25,Mn,8.331798000000001,13.317452,65.960546834,9.90399,35.009,-13.699,19.658150000000003,-32.26,6.39619,3.85437,15.82,29.50789,7.440180000000001,4.1211400000000005,-9.214
40,26,Fe,8.521724,6.340694000000001,65.94624996,11.24093,31.16602,-11.597790000000002,15.938450000000001,-29.137,1.04604,6.92126,16.389470000000003,18.83132,3.632,1.68327,-8.41396
39,27,Co,8.605941000000001,9.597752,65.939442945,12.758840000000001,27.99744,-10.30949,9.84974,-22.730169999999998,0.64583,5.29465,12.479610000000001,7.31513,9.27182,4.09114,-3.87508
38,28,Ni,8.739508,0.251987,65.929139334,15.05,25.61468,-9.55315,2.8928800000000003,-22.077360000000002,-6.81394,8.95192,14.110059999999999,-4.39925,4.49685,0.70921,-4.72426
37,29,Cu,8.731472,2.640888,65.928868814,16.97636,21.04388,-7.25891,-2.5346100000000003,-14.36205,-8.41757,7.065930000000001,8.42156,-14.233200000000002,11.55145,4.11856,1.23957
36,30,Zn,8.759632,-5.1755,65.926033704,19.037779999999998,16.37818,-4.57775,-7.29213,-11.06245,-14.31297,11.05846,8.92447,-27.239,7.23619,1.54465,2.26002
35,31,Ga,8.669361,-2.1166280000000004,65.931589832,21.03347,12.87706,-3.3611500000000003,-11.69858,-3.74897,-15.31676,9.137469999999999,5.10061,,12.99116,3.35379,7.50249
34,32,Ge,8.625437,-9.581955,65.933862126,23.434169999999998,10.180959999999999,-2.86398,-19.947,-2.9839800000000003,-22.7413,13.20013,6.2385,,7.936590000000001,-0.19588,6.252770000000001
33,33,As,8.468403,-10.365,65.944148779,28.635,7.7702,-2.4630900000000002,,3.3434600000000003,-27.077,13.15934,2.83583,,13.00122,-0.23981,10.168420000000001
32,34,Se,8.3,,65.955276,31.102,1.923,-2.345,,7.529,,16.712,2.012,,8.583,-3.2960000000000003,10.907
44,23,V,7.812,18.03,66.999302,5.013,,,32.81,,15.998000000000001,3.111,,54.672000000000004,,5.239,
43,24,Cr,8.07,14.780000000000001,66.979946,6.603,,-15.355,26.93,,9.999,2.032,20.359,45.062,3.81,2.504,-12.009
42,25,Mn,8.279,12.15,66.964079,8.635,36.258,-13.995000000000001,21.862000000000002,-35.139,8.536,4.781,16.029,33.859,5.47,4.884,-11.494
41,26,Fe,8.448469,9.711620000000002,66.951035482,10.534889999999999,31.968,-12.027600000000001,18.13253,-28.179000000000002,2.72706,3.61363,16.14874,22.27016,6.06799,2.24293,-6.484
40,27,Co,8.581741000000001,8.420905000000001,66.940609628,12.279209999999999,28.932380000000002,-10.859639999999999,11.99774,-25.86036,2.61319,6.98456,12.542910000000001,11.55727,6.60693,4.51182,-6.68634
39,28,Ni,8.69575,3.576832,66.931569414,14.75963,27.10273,-10.53197,4.137630000000001,-20.963810000000002,-5.55572,5.80771,14.623120000000002,-1.0844500000000001,6.15332,0.9137000000000001,-3.1267300000000002
38,29,Cu,8.737458,0.5608,66.927729526,16.19849,22.71226,-7.89299,-0.44045999999999996,-18.19995,-6.49167,9.13256,8.602200000000002,-10.73229,8.51698,4.64346,-1.8807800000000001
37,30,Zn,8.734152,-1.001265,66.927127482,18.11093,17.33257,-4.79245,-5.22208,-9.163,-12.22797,7.0524700000000005,8.911010000000001,-21.30002,10.094149999999999,2.40829,4.865010000000001
36,31,Ga,8.707531000000001,-4.2208190000000005,66.928202384,20.36418,14.19333,-3.7242100000000002,-10.29182,-7.90975,-13.34333,11.226700000000001,5.26886,-34.089,9.743780000000001,3.98902,4.1918999999999995
35,32,Ge,8.632857,-6.071005,66.93273362,22.322650000000003,11.32415,-2.8697500000000002,-16.07794,-1.04804,-18.70447,9.12251,6.22354,,10.71008,1.03865,8.99219
34,33,As,8.530567999999999,-10.006936,66.939251111,25.792810000000003,8.50766,-2.46505,-23.797,-0.15254,-22.998,12.633469999999999,2.26916,,10.601799999999999,2.59233,7.892
33,34,Se,8.369534,-13.790000000000001,66.949994,29.703,4.68001,-2.08399,,7.73777,,12.991,1.8441800000000002,,11.06757,-2.184,13.38161
32,35,Br,8.152000000000001,,66.964798,,0.431,-1.715,,11.946,,,-1.581,,10.94,-1.226,12.388
44,24,Cr,8.013,13.58,67.984112,6.222,,-16.2,28.687,,10.589,4.191,21.438,48.664,1.522,1.844,
43,25,Mn,8.201,15.107000000000001,67.969533,7.772,37.347,-14.485,23.551000000000002,-35.019,9.159,2.991,16.989,37.187,7.051,4.704,-10.954
42,26,Fe,8.411698000000001,8.443751,67.953314875,9.56171,33.345,-12.43207,19.9769,-32.096000000000004,3.76354,5.94808,17.316,26.52018,3.9742800000000003,2.34448,-9.621
41,27,Co,8.524366,11.53315,67.944250135,11.66477,29.75822,-11.36655,13.636370000000001,-25.759,3.7407,4.68021,13.60948,15.155330000000001,8.84798,4.15129,-5.3169200000000005
40,28,Ni,8.682466,2.10322,67.931868789,13.60016,27.97392,-10.91919,6.54328,-25.14263,-4.21562,7.79245,15.43101,3.51497,3.65552,0.5854400000000001,-6.599520000000001
39,29,Cu,8.701889999999999,4.4400569999999995,67.929610889,15.4514,23.736439999999998,-8.199620000000001,1.51896,-17.53423,-5.75804,6.318840000000001,9.11333,-6.6725200000000005,11.15006,4.4227,-0.7354400000000001